 --invoking executable--
/home/CEISAM/blondel-a/soft/cfour2.1/cfour2.1-serial-mkl/bin/xjoda


   *************************************************************************
         <<<     CCCCCC     CCCCCC   |||     CCCCCC     CCCCCC   >>>
       <<<      CCC        CCC       |||    CCC        CCC         >>>
      <<<      CCC        CCC        |||   CCC        CCC            >>>
    <<<        CCC        CCC        |||   CCC        CCC              >>>
      <<<      CCC        CCC        |||   CCC        CCC            >>>
       <<<      CCC        CCC       |||    CCC        CCC         >>>
         <<<     CCCCCC     CCCCCC   |||     CCCCCC     CCCCCC   >>>
   *************************************************************************

     ****************************************************************
     * CFOUR Coupled-Cluster techniques for Computational Chemistry *
     ****************************************************************
 

   Department of Chemistry                Institut fuer Physikalische Chemie
   University of Florida                  Universitaet Mainz
   Gainesville, FL 32611, USA             D-55099 Mainz, Germany

   Department of Chemistry                Fakultaet fuer Chemie und Biowiss.
   Johns Hopkins University               Karlsruher Institut fuer Technologie
   Baltimore, MD 21218, USA               D-76131 Karlsruhe, Germany

   Department of Chemistry                Department of Physical Chemistry
   Southern Methodist University          Eotvos Lorand University
   Dallas, TX 75275, USA                  H-1053 Budapest, Hungary

 
                       Version 2.1
 
                     cribbar041                                        
                     Mon May  3 08:04:57 CEST 2021                     
                     integer*8 version is running
 
********************************************************************************
*                          Input from ZMAT file                                *
********************************************************************************
Ketene -GS                                                                      
B     0.0000000000            0.0000000000            0.0000000000              
F     0.0000000000            0.0000000000            2.3972962605              
                                                                                
*CFOUR(COORD=CARTESIAN,UNITS=BOHR                                               
       MEMORY=250,MEM_UNIT=GB,CC_PROG=ECC                                       
       FROZEN_CORE=1                                                            
       CALC=CC2,BASIS=AUG-PVTZ                                                  
       SCF_CONV=8,CC_CONV=7,ESTATE_CONV=5,ESTATE_MAXCYC=120                     
       EXCITE=EOMEE,ESTATE_SYM=0/1/0/0)                                         
                                                                                
********************************************************************************
    -------------------------------------------------------------------
                    CFOUR Control Parameters 
    -------------------------------------------------------------------
        External           Internal           Value            Units
          Name               Name
    -------------------------------------------------------------------
       ABCDTYPE             IABCDT         STANDARD    [  0]    ***   
       ANHARMONIC           IANHAR         OFF         [  0]    ***   
       ANH_ALGORIT          IANALG         STANDARD    [  0]    ***   
       ANH_DERIVAT          IANDER         SECOND      [  1]    ***   
       ANH_MODE             ANHMOD         VIBRATION   [  0]    ***   
       ANH_STEPSIZ          ICUBST             50000          x 10-6  
       ANH_SYMMETR          IANHSM         ABELIAN     [  0]    ***   
       AO_LADDERS           IAOLAD         SINGLEPASS  [  1]    ***   
       AV_SCF               IAVSCF         OFF         [  0]    ***   
       BASIS                IBASIS         AUG-PVTZ    [ 34]    ***   
       BOTHVECTORS          BOTHVC         OFF         [  0]    ***   
       BOX_POTENT           IPIAB          OFF         [  0]    ***   
       BREIT                IBREIT         OFF         [  0]    ***   
       BRUCK_CONV           IBRTOL          10D-  4             ***   
       BRUECKNER            IBRKNR         OFF         [  0]    ***   
       BUFFERSIZE           IBUFFS              4096            ***   
       CACHE_RECS           ICHREC             10               ***   
       CALCLEVEL            ICLLVL         CC2         [ 31]    ***   
       CCORBOPT             ICCORB         OFF         [  0]  x 0.01  
       CC_CONV              ICCCNV          10D-  7             ***   
       CC_EXPORDER          ICCEOR              5               ***   
       CC_EXTRAPOL          ICCEXT         DIIS        [  1]    ***   
       CC_GUESS             ICCGES         MP2         [  0]    ***   
       CC_MAXCYC            ICCCYC            100              cycles 
       CC_PROGRAM           ICCPRO         VCC         [  0]    ***   
       CHARGE               ICHRGE              0               ***   
       CHOLESKY             ICHOLE         OFF         [  0]    ***   
       CIS_CONV             ICISTL              5               ***   
       COMM_SIZE            IPSIZE            ***               ***   
       CONSTANT             ICONST         OLD         [  1]    ***   
       CONTINUUM            ICONTU         NONE        [  0]    ***   
       CONTRACTION          ICNTYP         GENERAL     [  1]    ***   
       COORDINATES          ICOORD         CARTESIAN   [  1]    ***   
       CPHF_CONVER          ICPHFT          10D- 16             ***   
       CPHF_MAXCYC          ICPHFC             64              cycles 
       CUBIC                ICUBIC         OFF         [  0]    ***   
       CURVILINEAR          ICURVY         OFF         [  0]    ***   
       DBOC                 IDBOC          OFF         [  0]    ***   
       DCT                  IDCT           OFF         [  0]    ***   
       DERIV_LEV            IDRLVL         ZERO        [  0]    ***   
       DEVMEM_SIZE          IDVMEM         *********           MByte  
       DIAG_MRCC            IEOMST          10D-  0             ***   
       DIFF_TYPE            IDIFTY         RELAXED     [  0]    ***   
       DIRECT               IDIRCT         OFF         [  0]    ***   
       DROPMO               IDRPMO      NONE         
       ECP                  IECP           OFF         [  0]    ***   
       EIGENVECTOR          IVEC                1               ***   
       EL_ANHARM            IELANH         OFF         [  0]    ***   
       EOMFOLLOW            IEOMSR         ENERGY      [  0]    ***   
       EOMIP                IEOMIP         OFF         [  0]    ***   
       EOMLEVEL             HBARFM         SAME        [  0]    ***   
       EOM_MRCC             IMRCCE         NEW         [  1]    ***   
       EOM_NONIT            EOMNON         OFF         [  0]    ***   
       EOM_NSING            IEOMSI          10D-  0             ***   
       EOM_NSTATES          IMRCCD         DAVIDSON    [  0]    ***   
       EOM_NTRIP            IEOMTR          10D-  0             ***   
       EOM_ORDER            IEXORD         ENERGY      [  0]    ***   
       EOM_PROPSTA          IEOMST              0               ***   
       ESTATE_CONV          IEXTOL          10D-  5             ***   
       ESTATE_DIAG          IEXDIG         ITERATIVE   [  0]    ***   
       ESTATE_LOCK          IESLOC         ON          [  1]    ***   
       ESTATE_MAXC          IEXMXC            120               ***   
       ESTATE_PROP          IEXPRP         OFF         [  0]    ***   
       ESTATE_SYM           IEXSYM   0,  1,  0,  0,
       EVAL_HESS            IRECAL              0            # of cyc.
       EXCITATION           IEXCIT              0               ***   
       EXCITE               IEXCIT         EOMEE       [  3]    ***   
       EXTERN_POT           IEXPOT         OFF         [  0]    ***   
       FCGRADNEW            IFCGNW         OFF         [  0]    ***   
       FC_FIELD             IFINFC              0             x 10-6  
       FD_CALTYPE           IFDCAL         GRADONLY    [  0]    ***   
       FD_PROJECT           IFDPRJ         OFF         [  1]    ***   
       FD_STEPSIZE          IDISFD              0            10-4 bohr
       FD_USEGROUP          IFDGRP         FULL        [  0]    ***   
       FILE_RECSIZ          IFLREC              4096           words  
       FINITE_PERT          IFIPER              0             x 10-6  
       FIXGEOM              IFIXGM         OFF         [  0]    ***   
       FOCK                 IFOCK          AO          [  1]    ***   
       FREQ_ALGORI          IVIALG         STANDARD    [  0]    ***   
       FROZEN_CORE          IFROCO         ON          [  1]    ***   
       GAMMA_ABCD           IGABCD         STORE       [  0]    ***   
       GAMMA_ABCI           IGABCI         STORE       [  0]    ***   
       GENBAS_1             IGNBS1              0               ***   
       GENBAS_2             IGNBS2              0               ***   
       GENBAS_3             IGNBS3              0               ***   
       GENBAS_4             IGNBS4              0               ***   
       GEO_CONV             ICONTL              5              H/bohr 
       GEO_MAXCYC           IOPTCY             50               ***   
       GEO_MAXSTEP          IMXSTP            300            millibohr
       GEO_METHOD           INR            SINGLE_POINT[  5]    ***   
       GIAO                 IGIAO          OFF         [  1]    ***   
       GIMIC                IGIMIC         OFF         [  0]    ***   
       GRID                 IGRID          OFF         [  0]    ***   
       GRID_ALGO            IGALGO         SERIAL      [  0]    ***   
       GUESS                IGUESS         MOREAD      [  0]    ***   
       HBAR                 IHBAR          ON          [  1]    ***   
       HESS_TYPE            IHESTP         SCF         [  0]    ***   
       HF2_FILE             IHF2Fl         USE         [  1]    ***   
       HFSTABILITY          ISTABL         OFF         [  0]    ***   
       INCORE               INCORE         OFF         [  0]    ***   
       INPUT_MRCC           IMRCC          ON          [  1]    ***   
       INTEGRALS            INTTYP         VMOL        [  1]    ***   
       JODA_PRINT           IJPRNT              0               ***   
       KEYWORD_OUT          IDMPKW         NO          [  0]    ***   
       LINDEP_TOL           ILINDP              8               ***   
       LINEQ_CONV           IZTACN          10D-  7           cycles  
       LINEQ_EXPOR          ILMAXD              5               ***   
       LINEQ_MAXCY          ILMAXC            100               ***   
       LINEQ_TYPE           ILTYPE         DIIS        [  1]    ***   
       LOCK_ORBOCC          ILOCOC         OFF         [  0]    ***   
       MEMORY_SIZE          IMEMSZ         *********           words  
       MEM_UNIT             IMEMU          GB          [  3]    ***   
       MRCC                 IMRCCC         OFF         [  0]    ***   
       MULTIPLICTY          IMULTP              1               ***   
       NACOUPLING           IVCOUP         OFF         [  0]    ***   
       NEGEVAL              IDIE           ABORT       [  0]    ***   
       NEWNORM              INEWNO         OFF         [  0]    ***   
       NON-HF               INONHF         OFF         [  0]    ***   
       NTOP_TAMP            ITOPT2             15               ***   
       NUC_MODEL            INUCMO         POINT       [  0]    ***   
       OCCUPATION           IOCCU   ESTIMATED BY SCF 
       OPEN-SHELL           IOPEN          SPIN-ORBITAL[  0]    ***   
       OPTVIB               IOPTVB         OFF         [  0]    ***   
       ORBITALS             IORBTP         STANDARD    [  0]    ***   
       PARALLEL             IPARAL         ON          [  1]    ***   
       PARA_INT             IPINTS         ON          [  1]    ***   
       PARA_PRINT           IPPRIN              0               ***   
       PERT_ORB             IPTORB         STANDARD    [  0]    ***   
       POINTS               IGRDFD              0               ***   
       PRINT                IPRNT               0               ***   
       PROPS                IPROPS         OFF         [  0]    ***   
       PROP_INTEGR          IINTYP         INTERNAL    [  0]    ***   
       PSI                  IPSI           OFF         [  0]    ***   
       QC_ALG               IQCALG         FLM         [  0]    ***   
       QC_LINALG            IQCLIN         TRIDIAG     [  2]    ***   
       QC_MAXCYC            IQCMAX          10D-100           cycles  
       QC_MAXSCFCY          IQCMSC          10D- 15           cycles  
       QC_RTRUST            IQCRTR          10D-  0           x 10-3  
       QC_SKIPSCF           IQCSKI         OFF         [  0]    ***   
       QC_START             IQCSTA          10D-  1             ***   
       QRHFGUESS            IQGUES         OFF         [  0]    ***   
       QUARTIC              IQUART         OFF         [  0]    ***   
       RAMAN_INT            IRAMIN         OFF         [  0]    ***   
       RAMAN_ORB            IRAMRE         UNRELAXED   [  0]    ***   
       RDO                  IRDOFM         OFF         [  0]    ***   
       REDUCE_REPR          REDREP         Ir          [  0]    ***   
       REFERENCE            IREFNC         RHF         [  0]    ***   
       RELATIVIST           IRELAT         OFF         [  0]    ***   
       RELAX_DENS           IRDENS         OFF         [  0]    ***   
       RESET_FLAGS          IRESET         OFF         [  0]    ***   
       RESTART_CC           ICCRES         OFF         [  0]    ***   
       ROT_EVEC             ROTVEC              0               ***   
       SAVE_INTS            ISVINT         OFF         [  0]    ***   
       SCALE_ON             ISTCRT              0               ***   
       SCF_CONV             ISCFCV          10D-  8             ***   
       SCF_DAMPING          IDAMP               0             x 10-3  
       SCF_EXPORDE          IRPPOR              6               ***   
       SCF_EXPSTAR          IRPPLS              8               ***   
       SCF_EXTRAPO          IRPP           ON          [  1]    ***   
       SCF_MAXCYC           ISCFCY            150              cycles 
       SCF_NOSTOP           ISCFST         OFF         [  0]    ***   
       SCF_PRINT            ISCFPR              0               ***   
       SCF_PROG             ISCFPR         SCF         [  0]    ***   
       SD_FIELD             IFINSD              0             x 10-6  
       SOPERT               IPERSO         OFF         [  0]    ***   
       SPHERICAL            IDFGHI         ON          [  1]    ***   
       SPINORBIT            ISOCAL         OFF         [  0]    ***   
       SPINROTATIO          ISRCON         OFF         [  0]    ***   
       SPIN_FLIP            ISPFLP         OFF         [  0]    ***   
       SPIN_ORBIT           ISPORB         OFF         [  0]    ***   
       SPIN_SCAL            ISCSMP         OFF         [  0]    ***   
       STEEPSCALE           ISTPSC              1000          x 10-3  
       SUBGROUP             ISUBGP         DEFAULT     [  0]    ***   
       SUBGRPAXIS           ISBXYZ         X           [  0]    ***   
       SYMMETRY             ISYM           ON          [  0]    ***   
       SYM_CHECK            ISYMCK         OVERRIDE    [  1]    ***   
       T3_EXTRAPOL          IT3EXT         OFF         [  0]    ***   
       T4_EXTRAPOL          IT4EXP         OFF         [  0]    ***   
       TAMP_SUM             IEVERY              5               ***   
       TESTSUITE            ITESTS         OFF         [  0]    ***   
       THERMOCH             ITHERM         OFF         [  0]    ***   
       TOL_CHOLESK          ITOLCH          10D-  4             ***   
       TRANGRAD             IRESRM         OFF         [  0]    ***   
       TRANS_INV            ITRAIN         USE         [  0]    ***   
       TREAT_PERT           ITREAT         SIMULTANEOUS[  0]    ***   
       TRIP_ALGORI          ITRALG         NORMAL      [  0]    ***   
       UIJ_THRESHO          IUIJTH              1               ***   
       UNITS                IUNITS         BOHR        [  1]    ***   
       UNOS                 IUNOS          OFF         [  0]    ***   
       UPDATE_HESS          IHUPDT         ON          [  1]    ***   
       VIBPHASE             ISETPH         STANDARD    [  0]    ***   
       VIBRATION            IVIB           NO          [  0]    ***   
       VIB_ALGORIT          IGEALG         STANDARD    [  0]    ***   
       VNATORB              IVNORB         OFF         [  0]    ***   
       VTRAN                IVTRAN         FULL/PARTIAL[  0]    ***   
       XFIELD               IXEFLD              0             x 10-6  
       XFORM_TOL            IXFTOL          10D- 11             ***   
       YFIELD               IYEFLD              0             x 10-6  
       ZFIELD               IZEFLD              0             x 10-6  
       ZSCALE_EXP           IZEXPS         OFF         [  0]    ***   
    -------------------------------------------------------------------
  @GETXYZ-I,     2 atoms read from ZMAT.
   Rotational constants (in cm-1): 
          1.5028196650             1.5028196650
   Rotational constants (in MHz): 
      45053.4064417322         45053.4064417322
********************************************************************************
   The full molecular point group is CXv .
   The largest Abelian subgroup of the full molecular point group is C2v .
   The computational point group is C2v .
********************************************************************************


 ----------------------------------------------------------------
         Coordinates used in calculation (QCOMP) 
 ----------------------------------------------------------------
 Z-matrix   Atomic            Coordinates (in bohr)
  Symbol    Number           X              Y              Z
 ----------------------------------------------------------------
     B         5        -0.00000000     0.00000000     1.51777004
     F         9         0.00000000     0.00000000    -0.87952622
 ----------------------------------------------------------------
 
   Interatomic distance matrix (Angstroms) 
 
                 B             F    
                [ 1]        [ 2]
  B    [ 1]     0.00000
  F    [ 2]     1.26859     0.00000
 rotcon2
   Rotational constants (in cm-1): 
          1.5028196650             0.0000000000
   Rotational constants (in MHz): 
      45053.4064417322             0.0000000000
  There are   2 frozen-core orbitals.
  There are   92 basis functions.
 @GEOPT-W, Archive file not created for single-point calculation.
 @CHECKOUT-I, Total execution time (CPU/WALL):        0.18/       1.50 seconds.
--executable xjoda finished with status     0 in        2.10 seconds (walltime).
 --invoking executable--
/home/CEISAM/blondel-a/soft/cfour2.1/cfour2.1-serial-mkl/bin/xvmol
 SERIAL VERSION OF MOLECULE STARTED
********************************************************************************
                    INPUT FROM MOL FILE
********************************************************************************
INTGRL        1    0    1    0    0    0    0    0    0                         
         *** CFOUR Program System (Release V0.1) ***                            
Ketene -GS                                                                      
    2    2 X  Y       0.10E-08              0    0                              
   9999.00      3.00                                                            
          5.00000000    1    4    1    1    1    1                              
B #1  -0.000000000000000   0.000000000000000   1.517770036077388                
   11    5                                                                      
   5473.00000000000       5.550000000000000E-004 -1.120000000000000E-004        
  0.000000000000000E+000  0.000000000000000E+000  0.000000000000000E+000        
   820.900000000000       4.291000000000000E-003 -8.680000000000000E-004        
  0.000000000000000E+000  0.000000000000000E+000  0.000000000000000E+000        
   186.800000000000       2.194900000000000E-002 -4.484000000000000E-003        
  0.000000000000000E+000  0.000000000000000E+000  0.000000000000000E+000        
   52.8300000000000       8.444100000000000E-002 -1.768300000000000E-002        
  0.000000000000000E+000  0.000000000000000E+000  0.000000000000000E+000        
   17.0800000000000       0.238557000000000      -5.363900000000000E-002        
  0.000000000000000E+000  0.000000000000000E+000  0.000000000000000E+000        
   5.99900000000000       0.435072000000000      -0.119005000000000             
  0.000000000000000E+000  0.000000000000000E+000  0.000000000000000E+000        
   2.20800000000000       0.341955000000000      -0.165824000000000             
  0.000000000000000E+000  0.000000000000000E+000  0.000000000000000E+000        
  0.587900000000000       3.685600000000000E-002  0.120107000000000             
   1.00000000000000       0.000000000000000E+000  0.000000000000000E+000        
  0.241500000000000      -9.545000000000000E-003  0.595981000000000             
  0.000000000000000E+000  0.000000000000000E+000  0.000000000000000E+000        
  8.610000000000000E-002  2.368000000000000E-003  0.411021000000000             
  0.000000000000000E+000   1.00000000000000       0.000000000000000E+000        
  2.914000000000000E-002  0.000000000000000E+000  0.000000000000000E+000        
  0.000000000000000E+000  0.000000000000000E+000   1.00000000000000             
    6    4                                                                      
   12.0500000000000       1.311800000000000E-002  0.000000000000000E+000        
  0.000000000000000E+000  0.000000000000000E+000                                
   2.61300000000000       7.989599999999999E-002  0.000000000000000E+000        
  0.000000000000000E+000  0.000000000000000E+000                                
  0.747500000000000       0.277275000000000       0.000000000000000E+000        
  0.000000000000000E+000  0.000000000000000E+000                                
  0.238500000000000       0.504270000000000        1.00000000000000             
  0.000000000000000E+000  0.000000000000000E+000                                
  7.698000000000001E-002  0.353680000000000       0.000000000000000E+000        
   1.00000000000000       0.000000000000000E+000                                
  2.096000000000000E-002  0.000000000000000E+000  0.000000000000000E+000        
  0.000000000000000E+000   1.00000000000000                                     
    3    3                                                                      
  0.661000000000000        1.00000000000000       0.000000000000000E+000        
  0.000000000000000E+000                                                        
  0.199000000000000       0.000000000000000E+000   1.00000000000000             
  0.000000000000000E+000                                                        
  6.040000000000000E-002  0.000000000000000E+000  0.000000000000000E+000        
   1.00000000000000                                                             
    2    2                                                                      
  0.490000000000000        1.00000000000000       0.000000000000000E+000        
  0.163000000000000       0.000000000000000E+000   1.00000000000000             
          9.00000000    1    4    1    1    1    1                              
F #2   0.000000000000000   0.000000000000000  -0.879526224422612                
   11    5                                                                      
   19500.0000000000       5.070000000000000E-004 -1.170000000000000E-004        
  0.000000000000000E+000  0.000000000000000E+000  0.000000000000000E+000        
   2923.00000000000       3.923000000000000E-003 -9.120000000000001E-004        
  0.000000000000000E+000  0.000000000000000E+000  0.000000000000000E+000        
   664.500000000000       2.020000000000000E-002 -4.717000000000000E-003        
  0.000000000000000E+000  0.000000000000000E+000  0.000000000000000E+000        
   187.500000000000       7.901000000000000E-002 -1.908600000000000E-002        
  0.000000000000000E+000  0.000000000000000E+000  0.000000000000000E+000        
   60.6200000000000       0.230439000000000      -5.965500000000000E-002        
  0.000000000000000E+000  0.000000000000000E+000  0.000000000000000E+000        
   21.4200000000000       0.432872000000000      -0.140010000000000             
  0.000000000000000E+000  0.000000000000000E+000  0.000000000000000E+000        
   7.95000000000000       0.349964000000000      -0.176782000000000             
  0.000000000000000E+000  0.000000000000000E+000  0.000000000000000E+000        
   2.25700000000000       4.323300000000000E-002  0.171625000000000             
   1.00000000000000       0.000000000000000E+000  0.000000000000000E+000        
  0.881500000000000      -7.892000000000000E-003  0.605043000000000             
  0.000000000000000E+000  0.000000000000000E+000  0.000000000000000E+000        
  0.304100000000000       2.384000000000000E-003  0.369512000000000             
  0.000000000000000E+000   1.00000000000000       0.000000000000000E+000        
  9.157999999999999E-002  0.000000000000000E+000  0.000000000000000E+000        
  0.000000000000000E+000  0.000000000000000E+000   1.00000000000000             
    6    4                                                                      
   43.8800000000000       1.666500000000000E-002  0.000000000000000E+000        
  0.000000000000000E+000  0.000000000000000E+000                                
   9.92600000000000       0.104472000000000       0.000000000000000E+000        
  0.000000000000000E+000  0.000000000000000E+000                                
   2.93000000000000       0.317260000000000       0.000000000000000E+000        
  0.000000000000000E+000  0.000000000000000E+000                                
  0.913200000000000       0.487343000000000        1.00000000000000             
  0.000000000000000E+000  0.000000000000000E+000                                
  0.267200000000000       0.334604000000000       0.000000000000000E+000        
   1.00000000000000       0.000000000000000E+000                                
  7.360999999999999E-002  0.000000000000000E+000  0.000000000000000E+000        
  0.000000000000000E+000   1.00000000000000                                     
    3    3                                                                      
   3.10700000000000        1.00000000000000       0.000000000000000E+000        
  0.000000000000000E+000                                                        
  0.855000000000000       0.000000000000000E+000   1.00000000000000             
  0.000000000000000E+000                                                        
  0.292000000000000       0.000000000000000E+000  0.000000000000000E+000        
   1.00000000000000                                                             
    2    2                                                                      
   1.91700000000000        1.00000000000000       0.000000000000000E+000        
  0.724000000000000       0.000000000000000E+000   1.00000000000000             
FINISH                                                                          
 
********************************************************************************
 ONE- AND TWO-ELECTRON INTEGRALS OVER SYMMETRY-ADAPTED AOS ARE CALCULATED.

  SPHERICAL HARMONICS ARE USED.
  
  INTEGRALS LESS THAN  0.10E-13 ARE NEGLECTED.

  NUCLEAR REPULSION ENERGY :   18.7711467879 A.U.
  @MOLECU-I, ONE ELECTRON INTEGRALS (CPU/WALL):        0.04/       0.07 SECONDS.
  @TWOEL-I,     195480 INTEGRALS OF SYMMETRY TYPE  I I I I
  @TWOEL-I,     731661 INTEGRALS OF SYMMETRY TYPE  I J I J
  @TWOEL-I,     399067 INTEGRALS OF SYMMETRY TYPE  I I J J
  @TWOEL-I,     472704 INTEGRALS OF SYMMETRY TYPE  I J K L
  @TWOEL-I, TOTAL NUMBER OF 2-E INTEGRALS    1798912.
  @MOLECU-I, TWO ELECTRON INTEGRALS (CPU/WALL):       26.98/       1.40 SECONDS.
 @CHECKOUT-I, Total execution time (CPU/WALL):       27.03/       1.49 seconds.

Running with 20 threads/proc

--executable xvmol finished with status     0 in        2.07 seconds (walltime).
 --invoking executable--
/home/CEISAM/blondel-a/soft/cfour2.1/cfour2.1-serial-mkl/bin/xvmol2ja
 @GETMEM-I,  Allocated  238418 MB of main memory.
 @CHECKOUT-I, Total execution time (CPU/WALL):        0.23/       0.07 seconds.
--executable xvmol2ja finished with status     0 in        0.64 seconds (walltime).
 --invoking executable--
/home/CEISAM/blondel-a/soft/cfour2.1/cfour2.1-serial-mkl/bin/xvscf
  There are   92 functions in the AO basis.

  There are 4 irreducible representations.

       Irrep        # of functions
         1                 38
         2                 22
         3                 22
         4                 10


  Parameters for SCF calculation: 
        SCF reference function:  RHF  
  Maximum number of iterations:  150
     Full symmetry point group: CXv 
     Computational point group: C2v 
        Initial density matrix: MOREAD                 
     SCF convergence tolerance: 10**(- 8)
  DIIS convergence acceleration:  ON
          Latest start for DIIS:   8
                     DIIS order:   6

  Memory information:     434642 words required.
  Fock matrices are constructed from AO integral file.
 @GETMEM-I,  Allocated       3 MB of main memory.
  Initialization and symmetry analysis required      0.003 seconds.

  @INITGES-I, Occupancies from core Hamiltonian:

          Alpha population by irrep:   5    1    1    0
           Beta population by irrep:   5    1    1    0


 total no. of electrons in initial guess :  0.000000000000000E+000
  --------------------------------------------------------------------
  Iteration         Total Energy            Largest Density Difference
  --------------------------------------------------------------------
       0            18.771146787929510              0.0000000000D+00
   current occupation vector 
     5  1  1  0
     5  1  1  0
       1          -105.143551614072123              0.1231108278D+02
   current occupation vector 
     5  1  1  0
     5  1  1  0
       2          -100.032574645599965              0.1948514809D+02
   current occupation vector 
     5  1  1  0
     5  1  1  0
       3          -114.368611021048352              0.1962798231D+02
   current occupation vector 
     5  1  1  0
     5  1  1  0
       4          -105.640377837674563              0.1533843482D+02
   current occupation vector 
     5  1  1  0
     5  1  1  0
       5          -115.622957588022174              0.1535872354D+02
   current occupation vector 
     5  1  1  0
     5  1  1  0
       6          -106.697007275417505              0.1185870706D+02
   current occupation vector 
     5  1  1  0
     5  1  1  0
       7          -115.702320455428904              0.1186899624D+02
   current occupation vector 
     5  1  1  0
     5  1  1  0
       8          -107.253576835401248              0.7871871268D+01
   current occupation vector 
     5  1  1  0
     5  1  1  0
       9          -119.911263948230001              0.7673363293D+01
   current occupation vector 
     5  1  1  0
     5  1  1  0
      10          -123.338412684290020              0.2097325370D+01
   current occupation vector 
     5  1  1  0
     5  1  1  0
      11          -124.060474149105730              0.6436389460D+00
   current occupation vector 
     5  1  1  0
     5  1  1  0
      12          -124.155304650948111              0.3529526943D+00
   current occupation vector 
     5  1  1  0
     5  1  1  0
      13          -124.156959904781203              0.6199672714D-01
   current occupation vector 
     5  1  1  0
     5  1  1  0
      14          -124.157004096059481              0.9141482376D-02
   current occupation vector 
     5  1  1  0
     5  1  1  0
      15          -124.157005658714340              0.1616221345D-02
   current occupation vector 
     5  1  1  0
     5  1  1  0
      16          -124.157005721783591              0.3997026210D-03
   current occupation vector 
     5  1  1  0
     5  1  1  0
      17          -124.157005723118843              0.8028898360D-04
   current occupation vector 
     5  1  1  0
     5  1  1  0
      18          -124.157005723181513              0.1376503213D-04
   current occupation vector 
     5  1  1  0
     5  1  1  0
      19          -124.157005723184355              0.3217368883D-05
   current occupation vector 
     5  1  1  0
     5  1  1  0
      20          -124.157005723184241              0.4733628182D-06
   current occupation vector 
     5  1  1  0
     5  1  1  0
      21          -124.157005723183985              0.6131452010D-07
   current occupation vector 
     5  1  1  0
     5  1  1  0
      22          -124.157005723184241              0.1206833122D-07
   current occupation vector 
     5  1  1  0
     5  1  1  0

  SCF has converged.

 Density matrix saved to file den.dat
 total electron number:   14.0000000000000     
     E(SCF)=      -124.157005723184042              0.4021482480D-08

  Eigenvector printing suppressed.

 @PUTMOS-I, Writing converged MOs to NEWMOS. 
 @PUTMOS-I, Symmetry   1 Full Blocks  9 Partial Blocksize   2
 @PUTMOS-I, Symmetry   2 Full Blocks  5 Partial Blocksize   2
 @PUTMOS-I, Symmetry   3 Full Blocks  5 Partial Blocksize   2
 @PUTMOS-I, Symmetry   4 Full Blocks  2 Partial Blocksize   2
 @PUTFOCK-I, Writing converged Fock matrix to NEWFOCK. 
 @PUTFOCK-I, Symmetry   1 Full Blocks  9 Partial Blocksize   2
 @PUTFOCK-I, Symmetry   2 Full Blocks  5 Partial Blocksize   2
 @PUTFOCK-I, Symmetry   3 Full Blocks  5 Partial Blocksize   2
 @PUTFOCK-I, Symmetry   4 Full Blocks  2 Partial Blocksize   2


 
  ORBITAL EIGENVALUES (ALPHA)  (1H = 27.2113834 eV)

       MO #        E(hartree)               E(eV)           FULLSYM    COMPSYM
       ----   --------------------   --------------------   -------   ---------
    1     1         -26.3794305454        -717.8207984450     SG+        A1 (1)
    2     2          -7.7112983066        -209.8350947336     SG+        A1 (1)
    3     3          -1.6981084444         -46.2078799362     SG+        A1 (1)
    4     4          -0.8527578988         -23.2047221313     SG+        A1 (1)
    5    61          -0.7437994072         -20.2398108416      PI        B2 (3)
    6    39          -0.7437994072         -20.2398108416      PI        B1 (2)
    7     5          -0.4059918617         -11.0476002051     SG+        A1 (1)
  +++++++++++++++++++++++++++++++++++++++++++++++++++++++++++++++++++++++++++++
    8    62           0.0399553971           1.0872416307      PI        B2 (3)
    9    40           0.0399553971           1.0872416307      PI        B1 (2)
   10     6           0.0484302897           1.3178551821     SG+        A1 (1)
   11     7           0.0668044096           1.8178404024     SG+        A1 (1)
   12    63           0.1144888470           3.1153999101      PI        B2 (3)
   13    41           0.1144888470           3.1153999101      PI        B1 (2)
   14     8           0.1664104090           4.5282574404     SG+        A1 (1)
   15    83           0.1867839912           5.0826507965      DE        A2 (4)
   16     9           0.1867839912           5.0826507965      DE        A1 (1)
   17    10           0.2017315044           5.4893933099     SG+        A1 (1)
   18    64           0.2070572881           5.6343152510      PI        B2 (3)
   19    42           0.2070572881           5.6343152510      PI        B1 (2)
   20    65           0.2675214711           7.2796293170      PI        B2 (3)
   21    43           0.2675214711           7.2796293170      PI        B1 (2)
   22    11           0.3117071952           8.4819839979     SG+        A1 (1)
   23    12           0.3944069249          10.7323580489     SG+        A1 (1)
   24    66           0.4161690204          11.3245347744      PI        B2 (3)
   25    44           0.4161690204          11.3245347744      PI        B1 (2)
   26    13           0.5427369183          14.7686223695     SG+        A1 (1)
   27    14           0.6169618859          16.7883864199     SG+        A1 (1)
   28    84           0.6336788141          17.2432771624      DE        A2 (4)
   29    15           0.6336788141          17.2432771624      DE        A1 (1)
   30    45           0.6649497329          18.0942021246      PH        B1 (2)
   31    67           0.6649497329          18.0942021246      PH        B2 (3)
   32    85           0.6754509320          18.3799542793      DE        A2 (4)
   33    16           0.6754509320          18.3799542793      DE        A1 (1)
   34    68           0.7151480422          19.4601675642      PI        B2 (3)
   35    46           0.7151480422          19.4601675642      PI        B1 (2)
   36    17           0.7927946916          21.5730403100     SG+        A1 (1)
   37    69           0.8335719605          22.6826462077      PI        B2 (3)
   38    47           0.8335719605          22.6826462077      PI        B1 (2)
   39    18           1.0021284268          27.2693008373     SG+        A1 (1)
   40    70           1.0640383301          28.9539549516      PI        B2 (3)
   41    48           1.0640383301          28.9539549516      PI        B1 (2)
   42    86           1.1441482359          31.1338563143      DE        A2 (4)
   43    19           1.1441482359          31.1338563143      DE        A1 (1)
   44    20           1.1770352533          32.0287575525     SG+        A1 (1)
   45    71           1.4891776811          40.5225848319      PI        B2 (3)
   46    49           1.4891776811          40.5225848319      PI        B1 (2)
   47    21           1.5042086173          40.9315973997     SG+        A1 (1)
   48    72           1.7876812549          48.6452800228      PI        B2 (3)
   49    50           1.7876812549          48.6452800229      PI        B1 (2)
   50    22           1.9939859746          54.2591168483     SG+        A1 (1)
   51    87           2.0626804185          56.1283877000      DE        A2 (4)
   52    23           2.0626804185          56.1283877000      DE        A1 (1)
   53    24           2.0721993025          56.3874097012     SG+        A1 (1)
   54    73           2.1412284436          58.2657881249      PI        B2 (3)
   55    51           2.1412284436          58.2657881249      PI        B1 (2)
   56    52           2.1871595403          59.5156368094      PH        B1 (2)
   57    74           2.1871595403          59.5156368094      PH        B2 (3)
   58    88           2.1931371658          59.6782962666      DE        A2 (4)
   59    25           2.1931371658          59.6782962666      DE        A1 (1)
   60    26           2.2925524856          62.3835246492     SG+        A1 (1)
   61    75           2.4599494298          66.9386270776      PI        B2 (3)
   62    53           2.4599494298          66.9386270776      PI        B1 (2)
   63    76           2.9253487418          79.6027861926      PH        B2 (3)
   64    54           2.9253487418          79.6027861926      PH        B1 (2)
   65    89           3.0281004176          82.3988014364      DE        A2 (4)
   66    27           3.0281004176          82.3988014364      DE        A1 (1)
   67    28           3.0380443913          82.6693907171     SG+        A1 (1)
   68    77           3.2720181883          89.0361414144      PI        B2 (3)
   69    55           3.2720181883          89.0361414144      PI        B1 (2)
   70    29           3.2878854400          89.4679112825     SG+        A1 (1)
   71    90           3.4019828213          92.5726588715      DE        A2 (4)
   72    30           3.4019828213          92.5726588715      DE        A1 (1)
   73    78           4.1202400536         112.1174317991      PI        B2 (3)
   74    56           4.1202400536         112.1174317991      PI        B1 (2)
   75    31           4.3722937394         118.9761612799     SG+        A1 (1)
   76    79           5.5800308617         151.8403591616      PI        B2 (3)
   77    57           5.5800308617         151.8403591616      PI        B1 (2)
   78    32           5.8614162112         159.4972437892     SG+        A1 (1)
   79    33           7.8471675290         213.5322842369     SG+        A1 (1)
   80    80           8.7651755428         238.5125522629      PH        B2 (3)
   81    58           8.7651755428         238.5125522629      PH        B1 (2)
   82    91           8.9334787553         243.0923155051      DE        A2 (4)
   83    34           8.9334787553         243.0923155051      DE        A1 (1)
   84    81           9.1131998672         247.9827755884      PI        B2 (3)
   85    59           9.1131998672         247.9827755884      PI        B1 (2)
   86    35           9.3114768119         253.3781655475     SG+        A1 (1)
   87    92           9.3425688114         254.2242218688      DE        A2 (4)
   88    36           9.3425688114         254.2242218688      DE        A1 (1)
   89    82           9.5351365076         259.4642552804      PI        B2 (3)
   90    60           9.5351365076         259.4642552804      PI        B1 (2)
   91    37           9.6676096273         263.0690321302     SG+        A1 (1)
   92    38          15.3037395060         416.4359231505     SG+        A1 (1)


  VSCF finished.

 @CHECKOUT-I, Total execution time (CPU/WALL):        5.56/       0.84 seconds.
--executable xvscf finished with status     0 in        1.40 seconds (walltime).
 --invoking executable--
/home/CEISAM/blondel-a/soft/cfour2.1/cfour2.1-serial-mkl/bin/xvtran
 @GETMEM-I,  Allocated  238418 MB of main memory.
  Full RHF integral transformation
  The following   2 MOs will be dropped:
    1  2
  There are  90 active molecular orbitals.
  Transformation of IIII integrals :
  1 pass through the AO integral file was required.
      195480 AO integrals were read.
      263154 MO integrals were written to HF2.
  Transformation of IIJJ integrals :
  1 pass through the AO integral file was required.
      399067 AO integrals were read.
      451319 MO integrals were written to HF2.
  Transformation of IJIJ integrals :
  1 pass through the AO integral file was required.
      731661 AO integrals were read.
      801554 MO integrals were written to HF2.
  Transformation of IJKL integrals :
  1 pass through the AO integral file was required.
      472704 AO integrals were read.
      496904 MO integrals were written to HF2.
  Summary of active molecular orbitals: 
------------------------------------------------------------------------
 
  Index      Eigenvalue    Symmetry    Index      Eigenvalue    Symmetry
------------------------------------------------------------------------
     1        -1.6981084        1        46         0.8335720        2
     2        -0.8527579        1        47         1.0640383        2
     3        -0.4059919        1        48         1.4891777        2
     4        -0.7437994        2        49         1.7876813        2
     5        -0.7437994        3        50         2.1412284        2
     6         0.0484303        1        51         2.1871595        2
     7         0.0668044        1        52         2.4599494        2
     8         0.1664104        1        53         2.9253487        2
     9         0.1867840        1        54         3.2720182        2
    10         0.2017315        1        55         4.1202401        2
    11         0.3117072        1        56         5.5800309        2
    12         0.3944069        1        57         8.7651755        2
    13         0.5427369        1        58         9.1131999        2
    14         0.6169619        1        59         9.5351365        2
    15         0.6336788        1        60         0.0399554        3
    16         0.6754509        1        61         0.1144888        3
    17         0.7927947        1        62         0.2070573        3
    18         1.0021284        1        63         0.2675215        3
    19         1.1441482        1        64         0.4161690        3
    20         1.1770353        1        65         0.6649497        3
    21         1.5042086        1        66         0.7151480        3
    22         1.9939860        1        67         0.8335720        3
    23         2.0626804        1        68         1.0640383        3
    24         2.0721993        1        69         1.4891777        3
    25         2.1931372        1        70         1.7876813        3
    26         2.2925525        1        71         2.1412284        3
    27         3.0281004        1        72         2.1871595        3
    28         3.0380444        1        73         2.4599494        3
    29         3.2878854        1        74         2.9253487        3
    30         3.4019828        1        75         3.2720182        3
    31         4.3722937        1        76         4.1202401        3
    32         5.8614162        1        77         5.5800309        3
    33         7.8471675        1        78         8.7651755        3
    34         8.9334788        1        79         9.1131999        3
    35         9.3114768        1        80         9.5351365        3
    36         9.3425688        1        81         0.1867840        4
    37         9.6676096        1        82         0.6336788        4
    38        15.3037395        1        83         0.6754509        4
    39         0.0399554        2        84         1.1441482        4
    40         0.1144888        2        85         2.0626804        4
    41         0.2070573        2        86         2.1931372        4
    42         0.2675215        2        87         3.0281004        4
    43         0.4161690        2        88         3.4019828        4
    44         0.6649497        2        89         8.9334788        4
    45         0.7151480        2        90         9.3425688        4
------------------------------------------------------------------------
  -1.69810844442988      -0.852757898789465      -0.405991861667233     
 -0.743799407183254      -0.743799407183265       4.843028973158998E-002
  6.680440960045919E-002  0.166410408974544       0.186783991160915     
  0.201731504393553       0.311707195226908       0.394406924892320     
  0.542736918312080       0.616961885880434       0.633678814080924     
  0.675450932026160       0.792794691576855        1.00212842678612     
   1.14414823592893        1.17703525328668        1.50420861732815     
   1.99398597457045        2.06268041851983        2.07219930248802     
   2.19313716577091        2.29255248556027        3.02810041757591     
   3.03804439127260        3.28788543997621        3.40198282133265     
   4.37229373938779        5.86141621117294        7.84716752904718     
   8.93347875525808        9.31147681185215        9.34256881143332     
   9.66760962730677        15.3037395059638       3.995539714955927E-002
  0.114488846975640       0.207057288053627       0.267521471070905     
  0.416169020440181       0.664949732933602       0.715148042204180     
  0.833571960465467        1.06403833006267        1.48917768112655     
   1.78768125485578        2.14122844356657        2.18715954034725     
   2.45994942975311        2.92534874182709        3.27201818832960     
   4.12024005362174        5.58003086170213        8.76517554277861     
   9.11319986724356        9.53513650762614       3.995539714955886E-002
  0.114488846975638       0.207057288053621       0.267521471070723     
  0.416169020440062       0.664949732933603       0.715148042204129     
  0.833571960465079        1.06403833006250        1.48917768112634     
   1.78768125485428        2.14122844356635        2.18715954034725     
   2.45994942975200        2.92534874182709        3.27201818832952     
   4.12024005361939        5.58003086170195        8.76517554277859     
   9.11319986724291        9.53513650762612       0.186783991160912     
  0.633678814080914       0.675450932026150        1.14414823592891     
   2.06268041851982        2.19313716577089        3.02810041757589     
   3.40198282133263        8.93347875525800        9.34256881143324     
 @CHECKOUT-I, Total execution time (CPU/WALL):       10.64/       0.68 seconds.
--executable xvtran finished with status     0 in        1.25 seconds (walltime).
 --invoking executable--
/home/CEISAM/blondel-a/soft/cfour2.1/cfour2.1-serial-mkl/bin/xintprc
 @GETMEM-I,  Allocated  238418 MB of main memory.
  @GMOIAA-I, Processing MO integrals for spin case AA.
  @GMOIAA-I, Generation of integral list completed.
                      TYPE                NUMBER
                      ----               --------
                      PPPP               1597584
                      PPPH                376104
                      PPHH                 22917
                      PHPH                 14467
                      PHHH                  1810
                      HHHH                    49

                     TOTAL               2012931

  @FORMT2-I, Second-order MP correlation energies:
            ------------------------------------------------
            E(SCF)                  =   -124.157005723184 a.u.
            E2(AA)                  =     -0.040357846738 a.u.
            E2(AB)                  =     -0.248636120365 a.u.
            E2(TOT)                 =     -0.329351813842 a.u.
            Total MP2 energy        =   -124.486357537026 a.u.
            ------------------------------------------------
   Largest T2 amplitudes for spin case AB:
       _       _                 _       _                 _       _
   i   j   a   b             i   j   a   b             i   j   a   b
-----------------------------------------------------------------------------
[  3   3  40  40]-0.04889 [  3   3  61  61]-0.04889 [  3   3  61  60]-0.02338
[  3   3  60  61]-0.02338 [  3   3  40  39]-0.02338 [  3   3  39  40]-0.02338
[  3   3  13  13]-0.02209 [  3   3  64  61]-0.02075 [  3   3  61  64]-0.02075
[  3   3  43  40]-0.02075 [  3   3  40  43]-0.02075 [  3   3  13  12] 0.01672
[  3   3  12  13] 0.01672 [  3   3  14  14]-0.01664 [  3   3  12  12]-0.01599
-----------------------------------------------------------------------------
   Norm of T2AB vector (    47537 symmetry allowed elements):  0.2477143798.
-----------------------------------------------------------------------------
 @CHECKOUT-I, Total execution time (CPU/WALL):        4.05/       0.59 seconds.
--executable xintprc finished with status     0 in        1.16 seconds (walltime).
  calling xvcc 
 --invoking executable--
/home/CEISAM/blondel-a/soft/cfour2.1/cfour2.1-serial-mkl/bin/xvcc
 @GETMEM-I,  Allocated  238418 MB of main memory.
   CC2 energy will be calculated.
   The total correlation energy is -0.329351813842 a.u.
   The total correlation energy is -0.329080721455 a.u.
  Convergence information after     1 iterations: 
  Largest element of residual vector :  0.19362723E-01.
  Largest element of DIIS residual   :  0.19362723E-01.
   The total correlation energy is -0.333150221851 a.u.
  Convergence information after     2 iterations: 
  Largest element of residual vector :  0.28804691E-02.
  Largest element of DIIS residual   :  0.28686538E-02.
   The total correlation energy is -0.333569518511 a.u.
  Convergence information after     3 iterations: 
  Largest element of residual vector :  0.50573995E-02.
  Largest element of DIIS residual   :  0.13390479E-02.
   The total correlation energy is -0.334692528059 a.u.
  Convergence information after     4 iterations: 
  Largest element of residual vector :  0.43953834E-03.
  Largest element of DIIS residual   :  0.27898082E-03.
   The total correlation energy is -0.334758697138 a.u.
  Convergence information after     5 iterations: 
  Largest element of residual vector :  0.20358395E-03.
  Largest element of DIIS residual   : -0.92720600E-04.
   The total correlation energy is -0.334763916634 a.u.
  Convergence information after     6 iterations: 
  Largest element of residual vector :  0.31965638E-04.
  Largest element of DIIS residual   :  0.15630997E-04.
   The total correlation energy is -0.334768053953 a.u.
  Convergence information after     7 iterations: 
  Largest element of residual vector : -0.13009072E-04.
  Largest element of DIIS residual   : -0.79188929E-05.
   The total correlation energy is -0.334768179948 a.u.
  Convergence information after     8 iterations: 
  Largest element of residual vector :  0.35447974E-05.
  Largest element of DIIS residual   :  0.19026715E-05.
   The total correlation energy is -0.334768534027 a.u.
  Convergence information after     9 iterations: 
  Largest element of residual vector : -0.75485304E-06.
  Largest element of DIIS residual   : -0.47233303E-06.
   The total correlation energy is -0.334768602607 a.u.
  Convergence information after    10 iterations: 
  Largest element of residual vector :  0.54872664E-06.
  Largest element of DIIS residual   :  0.37087951E-06.
   The total correlation energy is -0.334768655246 a.u.
  Convergence information after    11 iterations: 
  Largest element of residual vector :  0.12983484E-06.
  Largest element of DIIS residual   :  0.91220442E-07.
   The total correlation energy is -0.334768679829 a.u.
  Convergence information after    12 iterations: 
  Largest element of residual vector :  0.89930713E-07.
  Largest element of DIIS residual   :  0.39923861E-07.
  Amplitude equations converged in    12iterations.
   The total correlation energy is -0.334768688043 a.u.
   The CC iterations have converged.

   Largest T1 amplitudes for spin case AA:
   i       a                 i       a                 i       a    
-----------------------------------------------------------------------------
[  4      40    ] 0.03111 [  5      61    ] 0.03111 [  5      60    ] 0.01744
[  4      39    ] 0.01744 [  5      64    ] 0.01329 [  4      43    ] 0.01329
[  3      10    ] 0.01281 [  4      41    ] 0.01187 [  5      62    ] 0.01187
[  3      14    ] 0.00932 [  2      14    ]-0.00762 [  3      11    ]-0.00723
[  3       6    ] 0.00644 [  2      13    ]-0.00558 [  5      77    ] 0.00548
-----------------------------------------------------------------------------
   Norm of T1AA vector (      141 symmetry allowed elements):  0.0631899622.
-----------------------------------------------------------------------------
   Largest T2 amplitudes for spin case AB:
       _       _                 _       _                 _       _
   i   j   a   b             i   j   a   b             i   j   a   b
-----------------------------------------------------------------------------
[  3   3  40  40]-0.04862 [  3   3  61  61]-0.04862 [  3   3  61  60]-0.02318
[  3   3  60  61]-0.02318 [  3   3  40  39]-0.02318 [  3   3  39  40]-0.02318
[  3   3  13  13]-0.02201 [  3   3  64  61]-0.02084 [  3   3  61  64]-0.02084
[  3   3  43  40]-0.02084 [  3   3  40  43]-0.02084 [  4   4  40  40]-0.02036
[  5   5  61  61]-0.02036 [  3   3  14  14]-0.01690 [  3   3  13  12] 0.01679
-----------------------------------------------------------------------------
   Norm of T2AB vector (    47537 symmetry allowed elements):  0.2561533889.
-----------------------------------------------------------------------------
       Summary of iterative solution of CC equations 
      -----------------------------------------------------------
                       Correlation           Total
       Iteration         Energy              Energy
      -----------------------------------------------------------
            0        -0.329351813842    -124.486357537026  DIIS 
            1        -0.329080721455    -124.486086444639  DIIS 
            2        -0.333150221851    -124.490155945036  DIIS 
            3        -0.333569518511    -124.490575241695  DIIS 
            4        -0.334692528059    -124.491698251243  DIIS 
            5        -0.334758697138    -124.491764420322  DIIS 
            6        -0.334763916634    -124.491769639818  DIIS 
            7        -0.334768053953    -124.491773777137  DIIS 
            8        -0.334768179948    -124.491773903132  DIIS 
            9        -0.334768534027    -124.491774257211  DIIS 
           10        -0.334768602607    -124.491774325791  DIIS 
           11        -0.334768655246    -124.491774378430  DIIS 
           12        -0.334768688043    -124.491774411227  DIIS 
      -----------------------------------------------------------
      A miracle has come to pass. The CC iterations have converged.
      The reference energy is      -124.15700572318404 a.u.
      The correlation energy is      -0.33476868804270 a.u.
      The total energy is          -124.49177441122674 a.u.
 @CHECKOUT-I, Total execution time (CPU/WALL):       26.74/       1.40 seconds.
--executable xvcc finished with status     0 in        1.97 seconds (walltime).
 --invoking executable--
/home/CEISAM/blondel-a/soft/cfour2.1/cfour2.1-serial-mkl/bin/xlambda
 @GETMEM-I,  Allocated  238418 MB of main memory.
 Hbar is calculated for a CC2 wave function.
 Calculation of Hbar completed.
 @CHECKOUT-I, Total execution time (CPU/WALL):        6.03/       0.36 seconds.
--executable xlambda finished with status     0 in        0.93 seconds (walltime).
 --invoking executable--
/home/CEISAM/blondel-a/soft/cfour2.1/cfour2.1-serial-mkl/bin/xvee
 @GETMEM-I,  Allocated  238418 MB of main memory.
  cc2 and ccprog  T                     0
  EOMEE-CC2 excitation energies will be evaluated.
  @SETMET-I, VPROP property integrals are used.
  @SETMET-I, A total of   1 target states will be studied.
  Summary of active alpha molecular orbitals:
------------------------------------------------------------------------------
Orbital      Sym   Eigenvalue  <xx>     <yy>     <zz>     <xy>     <xz>     <yz>
        SCF
  #  position
------------------------------------------------------------------------------
   1      3    1      -1.6981   0.000    0.000    0.000    0.000    0.000    0.000
   2      4    1      -0.8528   0.000    0.000    0.000    0.000    0.000    0.000
   3      7    1      -0.4060   0.000    0.000    0.000    0.000    0.000    0.000
   4      6    2      -0.7438   0.000    0.000    0.000    0.000    0.000    0.000
   5      5    3      -0.7438   0.000    0.000    0.000    0.000    0.000    0.000
   6     10    1       0.0484   0.000    0.000    0.000    0.000    0.000    0.000
   7     11    1       0.0668   0.000    0.000    0.000    0.000    0.000    0.000
   8     14    1       0.1664   0.000    0.000    0.000    0.000    0.000    0.000
   9     16    1       0.1868   0.000    0.000    0.000    0.000    0.000    0.000
  10     17    1       0.2017   0.000    0.000    0.000    0.000    0.000    0.000
  11     22    1       0.3117   0.000    0.000    0.000    0.000    0.000    0.000
  12     23    1       0.3944   0.000    0.000    0.000    0.000    0.000    0.000
  13     26    1       0.5427   0.000    0.000    0.000    0.000    0.000    0.000
  14     27    1       0.6170   0.000    0.000    0.000    0.000    0.000    0.000
  15     29    1       0.6337   0.000    0.000    0.000    0.000    0.000    0.000
  16     33    1       0.6755   0.000    0.000    0.000    0.000    0.000    0.000
  17     36    1       0.7928   0.000    0.000    0.000    0.000    0.000    0.000
  18     39    1       1.0021   0.000    0.000    0.000    0.000    0.000    0.000
  19     43    1       1.1441   0.000    0.000    0.000    0.000    0.000    0.000
  20     44    1       1.1770   0.000    0.000    0.000    0.000    0.000    0.000
  21     47    1       1.5042   0.000    0.000    0.000    0.000    0.000    0.000
  22     50    1       1.9940   0.000    0.000    0.000    0.000    0.000    0.000
  23     52    1       2.0627   0.000    0.000    0.000    0.000    0.000    0.000
  24     53    1       2.0722   0.000    0.000    0.000    0.000    0.000    0.000
  25     59    1       2.1931   0.000    0.000    0.000    0.000    0.000    0.000
  26     60    1       2.2926   0.000    0.000    0.000    0.000    0.000    0.000
  27     66    1       3.0281   0.000    0.000    0.000    0.000    0.000    0.000
  28     67    1       3.0380   0.000    0.000    0.000    0.000    0.000    0.000
  29     70    1       3.2879   0.000    0.000    0.000    0.000    0.000    0.000
  30     72    1       3.4020   0.000    0.000    0.000    0.000    0.000    0.000
  31     75    1       4.3723   0.000    0.000    0.000    0.000    0.000    0.000
  32     78    1       5.8614   0.000    0.000    0.000    0.000    0.000    0.000
  33     79    1       7.8472   0.000    0.000    0.000    0.000    0.000    0.000
  34     83    1       8.9335   0.000    0.000    0.000    0.000    0.000    0.000
  35     86    1       9.3115   0.000    0.000    0.000    0.000    0.000    0.000
  36     88    1       9.3426   0.000    0.000    0.000    0.000    0.000    0.000
  37     91    1       9.6676   0.000    0.000    0.000    0.000    0.000    0.000
  38     92    1      15.3037   0.000    0.000    0.000    0.000    0.000    0.000
  39      9    2       0.0400   0.000    0.000    0.000    0.000    0.000    0.000
  40     13    2       0.1145   0.000    0.000    0.000    0.000    0.000    0.000
  41     19    2       0.2071   0.000    0.000    0.000    0.000    0.000    0.000
  42     21    2       0.2675   0.000    0.000    0.000    0.000    0.000    0.000
  43     25    2       0.4162   0.000    0.000    0.000    0.000    0.000    0.000
  44     30    2       0.6649   0.000    0.000    0.000    0.000    0.000    0.000
  45     35    2       0.7151   0.000    0.000    0.000    0.000    0.000    0.000
  46     38    2       0.8336   0.000    0.000    0.000    0.000    0.000    0.000
  47     41    2       1.0640   0.000    0.000    0.000    0.000    0.000    0.000
  48     46    2       1.4892   0.000    0.000    0.000    0.000    0.000    0.000
  49     49    2       1.7877   0.000    0.000    0.000    0.000    0.000    0.000
  50     55    2       2.1412   0.000    0.000    0.000    0.000    0.000    0.000
  51     56    2       2.1872   0.000    0.000    0.000    0.000    0.000    0.000
  52     62    2       2.4599   0.000    0.000    0.000    0.000    0.000    0.000
  53     64    2       2.9253   0.000    0.000    0.000    0.000    0.000    0.000
  54     69    2       3.2720   0.000    0.000    0.000    0.000    0.000    0.000
  55     74    2       4.1202   0.000    0.000    0.000    0.000    0.000    0.000
  56     77    2       5.5800   0.000    0.000    0.000    0.000    0.000    0.000
  57     81    2       8.7652   0.000    0.000    0.000    0.000    0.000    0.000
  58     85    2       9.1132   0.000    0.000    0.000    0.000    0.000    0.000
  59     90    2       9.5351   0.000    0.000    0.000    0.000    0.000    0.000
  60      8    3       0.0400   0.000    0.000    0.000    0.000    0.000    0.000
  61     12    3       0.1145   0.000    0.000    0.000    0.000    0.000    0.000
  62     18    3       0.2071   0.000    0.000    0.000    0.000    0.000    0.000
  63     20    3       0.2675   0.000    0.000    0.000    0.000    0.000    0.000
  64     24    3       0.4162   0.000    0.000    0.000    0.000    0.000    0.000
  65     31    3       0.6649   0.000    0.000    0.000    0.000    0.000    0.000
  66     34    3       0.7151   0.000    0.000    0.000    0.000    0.000    0.000
  67     37    3       0.8336   0.000    0.000    0.000    0.000    0.000    0.000
  68     40    3       1.0640   0.000    0.000    0.000    0.000    0.000    0.000
  69     45    3       1.4892   0.000    0.000    0.000    0.000    0.000    0.000
  70     48    3       1.7877   0.000    0.000    0.000    0.000    0.000    0.000
  71     54    3       2.1412   0.000    0.000    0.000    0.000    0.000    0.000
  72     57    3       2.1872   0.000    0.000    0.000    0.000    0.000    0.000
  73     61    3       2.4599   0.000    0.000    0.000    0.000    0.000    0.000
  74     63    3       2.9253   0.000    0.000    0.000    0.000    0.000    0.000
  75     68    3       3.2720   0.000    0.000    0.000    0.000    0.000    0.000
  76     73    3       4.1202   0.000    0.000    0.000    0.000    0.000    0.000
  77     76    3       5.5800   0.000    0.000    0.000    0.000    0.000    0.000
  78     80    3       8.7652   0.000    0.000    0.000    0.000    0.000    0.000
  79     84    3       9.1132   0.000    0.000    0.000    0.000    0.000    0.000
  80     89    3       9.5351   0.000    0.000    0.000    0.000    0.000    0.000
  81     15    4       0.1868   0.000    0.000    0.000    0.000    0.000    0.000
  82     28    4       0.6337   0.000    0.000    0.000    0.000    0.000    0.000
  83     32    4       0.6755   0.000    0.000    0.000    0.000    0.000    0.000
  84     42    4       1.1441   0.000    0.000    0.000    0.000    0.000    0.000
  85     51    4       2.0627   0.000    0.000    0.000    0.000    0.000    0.000
  86     58    4       2.1931   0.000    0.000    0.000    0.000    0.000    0.000
  87     65    4       3.0281   0.000    0.000    0.000    0.000    0.000    0.000
  88     71    4       3.4020   0.000    0.000    0.000    0.000    0.000    0.000
  89     82    4       8.9335   0.000    0.000    0.000    0.000    0.000    0.000
  90     87    4       9.3426   0.000    0.000    0.000    0.000    0.000    0.000
------------------------------------------------------------------------------
  @DRVTDA-I, Roots obtained by Davidson method.
  calling tda davidson                       4                     2
  after tda davidson                      4                     4
                     1                     1
  kroot is                      1
__________________________________________________________________________
    Tamm-Dancoff (CIS) Excitation Energies and Transition Moments

                Excitation         Transition Dipole         Oscillator
 Root  Symmetry  Energy         x           y           z     Strength
__________________________________________________________________________
   1       2    0.24155      0.0000      0.0000      0.0000  .00000000D+00
__________________________________________________________________________
 
__________________________________________________________________________
  TDA excitation ergy:             0.241546168525 a.u.    6.5728 eV
  Total TDA electronic energy:  -123.915459554659 a.u.
 
  Dominant contributions: 
  SCF eigenvalue ordering used in list below. 
--------------------------------------------------------------------------------
    I    j    A    b
--------------------------------------------------------------------------------
    7    0   13    0  -0.7301593406 AA  
    7    0    9    0  -0.6494219462 AA  
    7    0   25    0  -0.1337040720 AA  
    7    0   21    0  -0.0895397317 AA  
    7    0   19    0  -0.0842816343 AA  
    4    0   13    0  -0.0546358555 AA  
    4    0   25    0  -0.0332018321 AA  
    7    0   46    0  -0.0269748501 AA  
    7    0   35    0  -0.0268067668 AA  
    4    0    9    0  -0.0242367912 AA  
    4    0   35    0  -0.0218633896 AA  
    5    0   28    0  -0.0216907972 AA  
    6    0   29    0  -0.0216907972 AA  
    7    0   49    0  -0.0215557195 AA  
    6    0   17    0   0.0212250999 AA  
--------------------------------------------------------------------------------
__________________________________________________________________________
  @DOEOMEE-I, Excitation energies computed by the EOMEE-CC2/CC2-LR method.
  @DOEOMEE-I, right-hand eigenvectors will be computed.
  Beginning symmetry block   2.   1 roots requested.
  @DOEOMEE-I, Matrix dimension for diagonalization:    45262
  Creating initial guess for root
________________________________________________________________________
            Subspace          Eigenvalue           
 Iteration  Dimension   (a.u.)         (eV)       Overlap      Residual
________________________________________________________________________
  @NEWGES-I, Using TDA initial guess.
  1   1  0.2977782884D+00  0.8102959174D+01  0.0000000000D+00  0.2518331604D+00
  2   2  0.2417637194D+00  0.6578725262D+01  0.9770391802D+00  0.2397163874D+00
  3   3  0.2380514173D+00  0.6477708386D+01  0.9909960397D+00  0.7562479707D-01
  4   4  0.2372805205D+00  0.6456731217D+01  0.9988293511D+00  0.2163839534D-01
  5   5  0.2369063085D+00  0.6446548390D+01  0.9995390472D+00  0.5115335265D-02
  6   6  0.2368568902D+00  0.6445203649D+01  0.9999801259D+00  0.1976740829D-02
  L-O-C-K-I-N-G O-N R-O-O-T 
  7   7  0.2368476955D+00  0.6444953451D+01  0.9999962511D+00  0.6169861767D-03
  8   8  0.2368488544D+00  0.6444984986D+01  0.9999997433D+00  0.2336268306D-03
  9   9  0.2368489967D+00  0.6444988858D+01  0.9999999645D+00  0.5446647558D-04
 10  10  0.2368488488D+00  0.6444984834D+01  0.9999999971D+00  0.1758934068D-04
 11  11  0.2368487939D+00  0.6444983337D+01  0.9999999997D+00  0.6478500855D-05
  Converged eigenvalue:   0.236848793856595       a.u.
   Total EOMEE-CC2 electronic energy     -124.254925617370148 a.u.
  Converged eigenvector 
  SCF eigenvalue ordering used in list below. 
--------------------------------------------------------------------------------
    I    j    A    b
--------------------------------------------------------------------------------
    7    0   13    0   0.5104168179 AA  
    7    0    9    0   0.4432902978 AA  
    7    0   25    0   0.0940158508 AA  
    7    0   19    0   0.0709043569 AA  
    7    0   21    0   0.0639248541 AA  
    4    0   13    0   0.0528289185 AA  
    4    0    9    0   0.0285087513 AA  
    7    7    9   26  -0.0277356560 ABAB
    7    7   26    9  -0.0277356560 ABAB
    4    0   25    0   0.0265587036 AA  
    7    0   35    0   0.0260686161 AA  
    7    7    9   11  -0.0257985349 ABAB
    7    7   11    9  -0.0257985349 ABAB
    7    7   13   26  -0.0251639774 ABAB
    7    7   26   13  -0.0251639774 ABAB
--------------------------------------------------------------------------------
  Converged eigenvector, normalized to one 
  SCF eigenvalue ordering used in list below. 
--------------------------------------------------------------------------------
    I    j    A    b
--------------------------------------------------------------------------------
    7    0   13    0   0.5104168179 AA  
    7    0    9    0   0.4432902978 AA  
    7    0   25    0   0.0940158508 AA  
    7    0   19    0   0.0709043569 AA  
    7    0   21    0   0.0639248541 AA  
    4    0   13    0   0.0528289185 AA  
    4    0    9    0   0.0285087513 AA  
    7    7    9   26  -0.0277356560 ABAB
    7    7   26    9  -0.0277356560 ABAB
    4    0   25    0   0.0265587036 AA  
    7    0   35    0   0.0260686161 AA  
    7    7    9   11  -0.0257985349 ABAB
    7    7   11    9  -0.0257985349 ABAB
    7    7   13   26  -0.0251639774 ABAB
    7    7   26   13  -0.0251639774 ABAB
--------------------------------------------------------------------------------

  Eigenvector is saved on CCRE_2_1  

  Solution of   1 roots required   11 iterations.
 @CHECKOUT-I, Total execution time (CPU/WALL):       13.87/       0.75 seconds.
--executable xvee finished with status     0 in        1.32 seconds (walltime).
  The final electronic energy is      -124.254925617370148 a.u. 
  This computation required                           13.54 seconds (walltime).
