 --invoking executable--
/home/CEISAM/blondel-a/soft/cfour2.1/cfour2.1-serial-mkl/bin/xjoda


   *************************************************************************
         <<<     CCCCCC     CCCCCC   |||     CCCCCC     CCCCCC   >>>
       <<<      CCC        CCC       |||    CCC        CCC         >>>
      <<<      CCC        CCC        |||   CCC        CCC            >>>
    <<<        CCC        CCC        |||   CCC        CCC              >>>
      <<<      CCC        CCC        |||   CCC        CCC            >>>
       <<<      CCC        CCC       |||    CCC        CCC         >>>
         <<<     CCCCCC     CCCCCC   |||     CCCCCC     CCCCCC   >>>
   *************************************************************************

     ****************************************************************
     * CFOUR Coupled-Cluster techniques for Computational Chemistry *
     ****************************************************************
 

   Department of Chemistry                Institut fuer Physikalische Chemie
   University of Florida                  Universitaet Mainz
   Gainesville, FL 32611, USA             D-55099 Mainz, Germany

   Department of Chemistry                Fakultaet fuer Chemie und Biowiss.
   Johns Hopkins University               Karlsruher Institut fuer Technologie
   Baltimore, MD 21218, USA               D-76131 Karlsruhe, Germany

   Department of Chemistry                Department of Physical Chemistry
   Southern Methodist University          Eotvos Lorand University
   Dallas, TX 75275, USA                  H-1053 Budapest, Hungary

 
                       Version 2.1
 
                     cribbar041                                        
                     Mon May  3 08:11:10 CEST 2021                     
                     integer*8 version is running
 
********************************************************************************
*                          Input from ZMAT file                                *
********************************************************************************
Ketene -GS                                                                      
C     0.0000000000            0.0000000000           -1.2494205467              
O     0.0000000000            0.0000000000            0.8926669184              
                                                                                
*CFOUR(COORD=CARTESIAN,UNITS=BOHR                                               
       MEMORY=250,MEM_UNIT=GB,CC_PROG=ECC                                       
       FROZEN_CORE=1                                                            
       CALC=CC2,BASIS=AUG-PVTZ                                                  
       SCF_CONV=8,CC_CONV=7,ESTATE_CONV=5,ESTATE_MAXCYC=120                     
       EXCITE=EOMEE,ESTATE_SYM=4/4/4/4)                                         
                                                                                
********************************************************************************
    -------------------------------------------------------------------
                    CFOUR Control Parameters 
    -------------------------------------------------------------------
        External           Internal           Value            Units
          Name               Name
    -------------------------------------------------------------------
       ABCDTYPE             IABCDT         STANDARD    [  0]    ***   
       ANHARMONIC           IANHAR         OFF         [  0]    ***   
       ANH_ALGORIT          IANALG         STANDARD    [  0]    ***   
       ANH_DERIVAT          IANDER         SECOND      [  1]    ***   
       ANH_MODE             ANHMOD         VIBRATION   [  0]    ***   
       ANH_STEPSIZ          ICUBST             50000          x 10-6  
       ANH_SYMMETR          IANHSM         ABELIAN     [  0]    ***   
       AO_LADDERS           IAOLAD         SINGLEPASS  [  1]    ***   
       AV_SCF               IAVSCF         OFF         [  0]    ***   
       BASIS                IBASIS         AUG-PVTZ    [ 34]    ***   
       BOTHVECTORS          BOTHVC         OFF         [  0]    ***   
       BOX_POTENT           IPIAB          OFF         [  0]    ***   
       BREIT                IBREIT         OFF         [  0]    ***   
       BRUCK_CONV           IBRTOL          10D-  4             ***   
       BRUECKNER            IBRKNR         OFF         [  0]    ***   
       BUFFERSIZE           IBUFFS              4096            ***   
       CACHE_RECS           ICHREC             10               ***   
       CALCLEVEL            ICLLVL         CC2         [ 31]    ***   
       CCORBOPT             ICCORB         OFF         [  0]  x 0.01  
       CC_CONV              ICCCNV          10D-  7             ***   
       CC_EXPORDER          ICCEOR              5               ***   
       CC_EXTRAPOL          ICCEXT         DIIS        [  1]    ***   
       CC_GUESS             ICCGES         MP2         [  0]    ***   
       CC_MAXCYC            ICCCYC            100              cycles 
       CC_PROGRAM           ICCPRO         VCC         [  0]    ***   
       CHARGE               ICHRGE              0               ***   
       CHOLESKY             ICHOLE         OFF         [  0]    ***   
       CIS_CONV             ICISTL              5               ***   
       COMM_SIZE            IPSIZE            ***               ***   
       CONSTANT             ICONST         OLD         [  1]    ***   
       CONTINUUM            ICONTU         NONE        [  0]    ***   
       CONTRACTION          ICNTYP         GENERAL     [  1]    ***   
       COORDINATES          ICOORD         CARTESIAN   [  1]    ***   
       CPHF_CONVER          ICPHFT          10D- 16             ***   
       CPHF_MAXCYC          ICPHFC             64              cycles 
       CUBIC                ICUBIC         OFF         [  0]    ***   
       CURVILINEAR          ICURVY         OFF         [  0]    ***   
       DBOC                 IDBOC          OFF         [  0]    ***   
       DCT                  IDCT           OFF         [  0]    ***   
       DERIV_LEV            IDRLVL         ZERO        [  0]    ***   
       DEVMEM_SIZE          IDVMEM         *********           MByte  
       DIAG_MRCC            IEOMST          10D-  0             ***   
       DIFF_TYPE            IDIFTY         RELAXED     [  0]    ***   
       DIRECT               IDIRCT         OFF         [  0]    ***   
       DROPMO               IDRPMO      NONE         
       ECP                  IECP           OFF         [  0]    ***   
       EIGENVECTOR          IVEC                1               ***   
       EL_ANHARM            IELANH         OFF         [  0]    ***   
       EOMFOLLOW            IEOMSR         ENERGY      [  0]    ***   
       EOMIP                IEOMIP         OFF         [  0]    ***   
       EOMLEVEL             HBARFM         SAME        [  0]    ***   
       EOM_MRCC             IMRCCE         NEW         [  1]    ***   
       EOM_NONIT            EOMNON         OFF         [  0]    ***   
       EOM_NSING            IEOMSI          10D-  0             ***   
       EOM_NSTATES          IMRCCD         DAVIDSON    [  0]    ***   
       EOM_NTRIP            IEOMTR          10D-  0             ***   
       EOM_ORDER            IEXORD         ENERGY      [  0]    ***   
       EOM_PROPSTA          IEOMST              0               ***   
       ESTATE_CONV          IEXTOL          10D-  5             ***   
       ESTATE_DIAG          IEXDIG         ITERATIVE   [  0]    ***   
       ESTATE_LOCK          IESLOC         ON          [  1]    ***   
       ESTATE_MAXC          IEXMXC            120               ***   
       ESTATE_PROP          IEXPRP         OFF         [  0]    ***   
       ESTATE_SYM           IEXSYM   4,  4,  4,  4,
       EVAL_HESS            IRECAL              0            # of cyc.
       EXCITATION           IEXCIT              0               ***   
       EXCITE               IEXCIT         EOMEE       [  3]    ***   
       EXTERN_POT           IEXPOT         OFF         [  0]    ***   
       FCGRADNEW            IFCGNW         OFF         [  0]    ***   
       FC_FIELD             IFINFC              0             x 10-6  
       FD_CALTYPE           IFDCAL         GRADONLY    [  0]    ***   
       FD_PROJECT           IFDPRJ         OFF         [  1]    ***   
       FD_STEPSIZE          IDISFD              0            10-4 bohr
       FD_USEGROUP          IFDGRP         FULL        [  0]    ***   
       FILE_RECSIZ          IFLREC              4096           words  
       FINITE_PERT          IFIPER              0             x 10-6  
       FIXGEOM              IFIXGM         OFF         [  0]    ***   
       FOCK                 IFOCK          AO          [  1]    ***   
       FREQ_ALGORI          IVIALG         STANDARD    [  0]    ***   
       FROZEN_CORE          IFROCO         ON          [  1]    ***   
       GAMMA_ABCD           IGABCD         STORE       [  0]    ***   
       GAMMA_ABCI           IGABCI         STORE       [  0]    ***   
       GENBAS_1             IGNBS1              0               ***   
       GENBAS_2             IGNBS2              0               ***   
       GENBAS_3             IGNBS3              0               ***   
       GENBAS_4             IGNBS4              0               ***   
       GEO_CONV             ICONTL              5              H/bohr 
       GEO_MAXCYC           IOPTCY             50               ***   
       GEO_MAXSTEP          IMXSTP            300            millibohr
       GEO_METHOD           INR            SINGLE_POINT[  5]    ***   
       GIAO                 IGIAO          OFF         [  1]    ***   
       GIMIC                IGIMIC         OFF         [  0]    ***   
       GRID                 IGRID          OFF         [  0]    ***   
       GRID_ALGO            IGALGO         SERIAL      [  0]    ***   
       GUESS                IGUESS         MOREAD      [  0]    ***   
       HBAR                 IHBAR          ON          [  1]    ***   
       HESS_TYPE            IHESTP         SCF         [  0]    ***   
       HF2_FILE             IHF2Fl         USE         [  1]    ***   
       HFSTABILITY          ISTABL         OFF         [  0]    ***   
       INCORE               INCORE         OFF         [  0]    ***   
       INPUT_MRCC           IMRCC          ON          [  1]    ***   
       INTEGRALS            INTTYP         VMOL        [  1]    ***   
       JODA_PRINT           IJPRNT              0               ***   
       KEYWORD_OUT          IDMPKW         NO          [  0]    ***   
       LINDEP_TOL           ILINDP              8               ***   
       LINEQ_CONV           IZTACN          10D-  7           cycles  
       LINEQ_EXPOR          ILMAXD              5               ***   
       LINEQ_MAXCY          ILMAXC            100               ***   
       LINEQ_TYPE           ILTYPE         DIIS        [  1]    ***   
       LOCK_ORBOCC          ILOCOC         OFF         [  0]    ***   
       MEMORY_SIZE          IMEMSZ         *********           words  
       MEM_UNIT             IMEMU          GB          [  3]    ***   
       MRCC                 IMRCCC         OFF         [  0]    ***   
       MULTIPLICTY          IMULTP              1               ***   
       NACOUPLING           IVCOUP         OFF         [  0]    ***   
       NEGEVAL              IDIE           ABORT       [  0]    ***   
       NEWNORM              INEWNO         OFF         [  0]    ***   
       NON-HF               INONHF         OFF         [  0]    ***   
       NTOP_TAMP            ITOPT2             15               ***   
       NUC_MODEL            INUCMO         POINT       [  0]    ***   
       OCCUPATION           IOCCU   ESTIMATED BY SCF 
       OPEN-SHELL           IOPEN          SPIN-ORBITAL[  0]    ***   
       OPTVIB               IOPTVB         OFF         [  0]    ***   
       ORBITALS             IORBTP         STANDARD    [  0]    ***   
       PARALLEL             IPARAL         ON          [  1]    ***   
       PARA_INT             IPINTS         ON          [  1]    ***   
       PARA_PRINT           IPPRIN              0               ***   
       PERT_ORB             IPTORB         STANDARD    [  0]    ***   
       POINTS               IGRDFD              0               ***   
       PRINT                IPRNT               0               ***   
       PROPS                IPROPS         OFF         [  0]    ***   
       PROP_INTEGR          IINTYP         INTERNAL    [  0]    ***   
       PSI                  IPSI           OFF         [  0]    ***   
       QC_ALG               IQCALG         FLM         [  0]    ***   
       QC_LINALG            IQCLIN         TRIDIAG     [  2]    ***   
       QC_MAXCYC            IQCMAX          10D-100           cycles  
       QC_MAXSCFCY          IQCMSC          10D- 15           cycles  
       QC_RTRUST            IQCRTR          10D-  0           x 10-3  
       QC_SKIPSCF           IQCSKI         OFF         [  0]    ***   
       QC_START             IQCSTA          10D-  1             ***   
       QRHFGUESS            IQGUES         OFF         [  0]    ***   
       QUARTIC              IQUART         OFF         [  0]    ***   
       RAMAN_INT            IRAMIN         OFF         [  0]    ***   
       RAMAN_ORB            IRAMRE         UNRELAXED   [  0]    ***   
       RDO                  IRDOFM         OFF         [  0]    ***   
       REDUCE_REPR          REDREP         Ir          [  0]    ***   
       REFERENCE            IREFNC         RHF         [  0]    ***   
       RELATIVIST           IRELAT         OFF         [  0]    ***   
       RELAX_DENS           IRDENS         OFF         [  0]    ***   
       RESET_FLAGS          IRESET         OFF         [  0]    ***   
       RESTART_CC           ICCRES         OFF         [  0]    ***   
       ROT_EVEC             ROTVEC              0               ***   
       SAVE_INTS            ISVINT         OFF         [  0]    ***   
       SCALE_ON             ISTCRT              0               ***   
       SCF_CONV             ISCFCV          10D-  8             ***   
       SCF_DAMPING          IDAMP               0             x 10-3  
       SCF_EXPORDE          IRPPOR              6               ***   
       SCF_EXPSTAR          IRPPLS              8               ***   
       SCF_EXTRAPO          IRPP           ON          [  1]    ***   
       SCF_MAXCYC           ISCFCY            150              cycles 
       SCF_NOSTOP           ISCFST         OFF         [  0]    ***   
       SCF_PRINT            ISCFPR              0               ***   
       SCF_PROG             ISCFPR         SCF         [  0]    ***   
       SD_FIELD             IFINSD              0             x 10-6  
       SOPERT               IPERSO         OFF         [  0]    ***   
       SPHERICAL            IDFGHI         ON          [  1]    ***   
       SPINORBIT            ISOCAL         OFF         [  0]    ***   
       SPINROTATIO          ISRCON         OFF         [  0]    ***   
       SPIN_FLIP            ISPFLP         OFF         [  0]    ***   
       SPIN_ORBIT           ISPORB         OFF         [  0]    ***   
       SPIN_SCAL            ISCSMP         OFF         [  0]    ***   
       STEEPSCALE           ISTPSC              1000          x 10-3  
       SUBGROUP             ISUBGP         DEFAULT     [  0]    ***   
       SUBGRPAXIS           ISBXYZ         X           [  0]    ***   
       SYMMETRY             ISYM           ON          [  0]    ***   
       SYM_CHECK            ISYMCK         OVERRIDE    [  1]    ***   
       T3_EXTRAPOL          IT3EXT         OFF         [  0]    ***   
       T4_EXTRAPOL          IT4EXP         OFF         [  0]    ***   
       TAMP_SUM             IEVERY              5               ***   
       TESTSUITE            ITESTS         OFF         [  0]    ***   
       THERMOCH             ITHERM         OFF         [  0]    ***   
       TOL_CHOLESK          ITOLCH          10D-  4             ***   
       TRANGRAD             IRESRM         OFF         [  0]    ***   
       TRANS_INV            ITRAIN         USE         [  0]    ***   
       TREAT_PERT           ITREAT         SIMULTANEOUS[  0]    ***   
       TRIP_ALGORI          ITRALG         NORMAL      [  0]    ***   
       UIJ_THRESHO          IUIJTH              1               ***   
       UNITS                IUNITS         BOHR        [  1]    ***   
       UNOS                 IUNOS          OFF         [  0]    ***   
       UPDATE_HESS          IHUPDT         ON          [  1]    ***   
       VIBPHASE             ISETPH         STANDARD    [  0]    ***   
       VIBRATION            IVIB           NO          [  0]    ***   
       VIB_ALGORIT          IGEALG         STANDARD    [  0]    ***   
       VNATORB              IVNORB         OFF         [  0]    ***   
       VTRAN                IVTRAN         FULL/PARTIAL[  0]    ***   
       XFIELD               IXEFLD              0             x 10-6  
       XFORM_TOL            IXFTOL          10D- 11             ***   
       YFIELD               IYEFLD              0             x 10-6  
       ZFIELD               IZEFLD              0             x 10-6  
       ZSCALE_EXP           IZEXPS         OFF         [  0]    ***   
    -------------------------------------------------------------------
  @GETXYZ-I,     2 atoms read from ZMAT.
   Rotational constants (in cm-1): 
          1.9135333977             1.9135333977
   Rotational constants (in MHz): 
      57366.2961120363         57366.2961120363
********************************************************************************
   The full molecular point group is CXv .
   The largest Abelian subgroup of the full molecular point group is C2v .
   The computational point group is C2v .
********************************************************************************


 ----------------------------------------------------------------
         Coordinates used in calculation (QCOMP) 
 ----------------------------------------------------------------
 Z-matrix   Atomic            Coordinates (in bohr)
  Symbol    Number           X              Y              Z
 ----------------------------------------------------------------
     C         6        -0.00000000     0.00000000     1.22388322
     O         8         0.00000000     0.00000000    -0.91820425
 ----------------------------------------------------------------
 
   Interatomic distance matrix (Angstroms) 
 
                 C             O    
                [ 1]        [ 2]
  C    [ 1]     0.00000
  O    [ 2]     1.13354     0.00000
 rotcon2
   Rotational constants (in cm-1): 
          1.9135333977             0.0000000000
   Rotational constants (in MHz): 
      57366.2961120363             0.0000000000
  There are   2 frozen-core orbitals.
  There are   92 basis functions.
 @GEOPT-W, Archive file not created for single-point calculation.
 @CHECKOUT-I, Total execution time (CPU/WALL):        0.17/       1.53 seconds.
--executable xjoda finished with status     0 in        2.11 seconds (walltime).
 --invoking executable--
/home/CEISAM/blondel-a/soft/cfour2.1/cfour2.1-serial-mkl/bin/xvmol
 SERIAL VERSION OF MOLECULE STARTED
********************************************************************************
                    INPUT FROM MOL FILE
********************************************************************************
INTGRL        1    0    1    0    0    0    0    0    0                         
         *** CFOUR Program System (Release V0.1) ***                            
Ketene -GS                                                                      
    2    2 X  Y       0.10E-08              0    0                              
   9999.00      3.00                                                            
          6.00000000    1    4    1    1    1    1                              
C #1  -0.000000000000000   0.000000000000000   1.223883215473396                
   11    5                                                                      
   8236.00000000000       5.310000000000000E-004 -1.130000000000000E-004        
  0.000000000000000E+000  0.000000000000000E+000  0.000000000000000E+000        
   1235.00000000000       4.108000000000000E-003 -8.780000000000000E-004        
  0.000000000000000E+000  0.000000000000000E+000  0.000000000000000E+000        
   280.800000000000       2.108700000000000E-002 -4.540000000000000E-003        
  0.000000000000000E+000  0.000000000000000E+000  0.000000000000000E+000        
   79.2700000000000       8.185300000000000E-002 -1.813300000000000E-002        
  0.000000000000000E+000  0.000000000000000E+000  0.000000000000000E+000        
   25.5900000000000       0.234817000000000      -5.576000000000000E-002        
  0.000000000000000E+000  0.000000000000000E+000  0.000000000000000E+000        
   8.99700000000000       0.434401000000000      -0.126895000000000             
  0.000000000000000E+000  0.000000000000000E+000  0.000000000000000E+000        
   3.31900000000000       0.346129000000000      -0.170352000000000             
  0.000000000000000E+000  0.000000000000000E+000  0.000000000000000E+000        
  0.905900000000000       3.937800000000000E-002  0.140382000000000             
   1.00000000000000       0.000000000000000E+000  0.000000000000000E+000        
  0.364300000000000      -8.983000000000000E-003  0.598684000000000             
  0.000000000000000E+000  0.000000000000000E+000  0.000000000000000E+000        
  0.128500000000000       2.385000000000000E-003  0.395389000000000             
  0.000000000000000E+000   1.00000000000000       0.000000000000000E+000        
  4.402000000000000E-002  0.000000000000000E+000  0.000000000000000E+000        
  0.000000000000000E+000  0.000000000000000E+000   1.00000000000000             
    6    4                                                                      
   18.7100000000000       1.403100000000000E-002  0.000000000000000E+000        
  0.000000000000000E+000  0.000000000000000E+000                                
   4.13300000000000       8.686600000000000E-002  0.000000000000000E+000        
  0.000000000000000E+000  0.000000000000000E+000                                
   1.20000000000000       0.290216000000000       0.000000000000000E+000        
  0.000000000000000E+000  0.000000000000000E+000                                
  0.382700000000000       0.501008000000000        1.00000000000000             
  0.000000000000000E+000  0.000000000000000E+000                                
  0.120900000000000       0.343406000000000       0.000000000000000E+000        
   1.00000000000000       0.000000000000000E+000                                
  3.569000000000000E-002  0.000000000000000E+000  0.000000000000000E+000        
  0.000000000000000E+000   1.00000000000000                                     
    3    3                                                                      
   1.09700000000000        1.00000000000000       0.000000000000000E+000        
  0.000000000000000E+000                                                        
  0.318000000000000       0.000000000000000E+000   1.00000000000000             
  0.000000000000000E+000                                                        
  0.100000000000000       0.000000000000000E+000  0.000000000000000E+000        
   1.00000000000000                                                             
    2    2                                                                      
  0.761000000000000        1.00000000000000       0.000000000000000E+000        
  0.268000000000000       0.000000000000000E+000   1.00000000000000             
          8.00000000    1    4    1    1    1    1                              
O #2   0.000000000000000   0.000000000000000  -0.918204249626604                
   11    5                                                                      
   15330.0000000000       5.080000000000000E-004 -1.150000000000000E-004        
  0.000000000000000E+000  0.000000000000000E+000  0.000000000000000E+000        
   2299.00000000000       3.929000000000000E-003 -8.950000000000000E-004        
  0.000000000000000E+000  0.000000000000000E+000  0.000000000000000E+000        
   522.400000000000       2.024300000000000E-002 -4.636000000000000E-003        
  0.000000000000000E+000  0.000000000000000E+000  0.000000000000000E+000        
   147.300000000000       7.918100000000000E-002 -1.872400000000000E-002        
  0.000000000000000E+000  0.000000000000000E+000  0.000000000000000E+000        
   47.5500000000000       0.230687000000000      -5.846300000000000E-002        
  0.000000000000000E+000  0.000000000000000E+000  0.000000000000000E+000        
   16.7600000000000       0.433118000000000      -0.136463000000000             
  0.000000000000000E+000  0.000000000000000E+000  0.000000000000000E+000        
   6.20700000000000       0.350260000000000      -0.175740000000000             
  0.000000000000000E+000  0.000000000000000E+000  0.000000000000000E+000        
   1.75200000000000       4.272800000000000E-002  0.160934000000000             
   1.00000000000000       0.000000000000000E+000  0.000000000000000E+000        
  0.688200000000000      -8.154000000000000E-003  0.603418000000000             
  0.000000000000000E+000  0.000000000000000E+000  0.000000000000000E+000        
  0.238400000000000       2.381000000000000E-003  0.378765000000000             
  0.000000000000000E+000   1.00000000000000       0.000000000000000E+000        
  7.376000000000001E-002  0.000000000000000E+000  0.000000000000000E+000        
  0.000000000000000E+000  0.000000000000000E+000   1.00000000000000             
    6    4                                                                      
   34.4600000000000       1.592800000000000E-002  0.000000000000000E+000        
  0.000000000000000E+000  0.000000000000000E+000                                
   7.74900000000000       9.974000000000000E-002  0.000000000000000E+000        
  0.000000000000000E+000  0.000000000000000E+000                                
   2.28000000000000       0.310492000000000       0.000000000000000E+000        
  0.000000000000000E+000  0.000000000000000E+000                                
  0.715600000000000       0.491026000000000        1.00000000000000             
  0.000000000000000E+000  0.000000000000000E+000                                
  0.214000000000000       0.336337000000000       0.000000000000000E+000        
   1.00000000000000       0.000000000000000E+000                                
  5.974000000000000E-002  0.000000000000000E+000  0.000000000000000E+000        
  0.000000000000000E+000   1.00000000000000                                     
    3    3                                                                      
   2.31400000000000        1.00000000000000       0.000000000000000E+000        
  0.000000000000000E+000                                                        
  0.645000000000000       0.000000000000000E+000   1.00000000000000             
  0.000000000000000E+000                                                        
  0.214000000000000       0.000000000000000E+000  0.000000000000000E+000        
   1.00000000000000                                                             
    2    2                                                                      
   1.42800000000000        1.00000000000000       0.000000000000000E+000        
  0.500000000000000       0.000000000000000E+000   1.00000000000000             
FINISH                                                                          
 
********************************************************************************
 ONE- AND TWO-ELECTRON INTEGRALS OVER SYMMETRY-ADAPTED AOS ARE CALCULATED.

  SPHERICAL HARMONICS ARE USED.
  
  INTEGRALS LESS THAN  0.10E-13 ARE NEGLECTED.

  NUCLEAR REPULSION ENERGY :   22.4080485891 A.U.
  @MOLECU-I, ONE ELECTRON INTEGRALS (CPU/WALL):        0.04/       0.07 SECONDS.
  @TWOEL-I,     195611 INTEGRALS OF SYMMETRY TYPE  I I I I
  @TWOEL-I,     731801 INTEGRALS OF SYMMETRY TYPE  I J I J
  @TWOEL-I,     399465 INTEGRALS OF SYMMETRY TYPE  I I J J
  @TWOEL-I,     472704 INTEGRALS OF SYMMETRY TYPE  I J K L
  @TWOEL-I, TOTAL NUMBER OF 2-E INTEGRALS    1799581.
  @MOLECU-I, TWO ELECTRON INTEGRALS (CPU/WALL):       29.08/       1.51 SECONDS.
 @CHECKOUT-I, Total execution time (CPU/WALL):       29.14/       1.60 seconds.

Running with 20 threads/proc

--executable xvmol finished with status     0 in        2.17 seconds (walltime).
 --invoking executable--
/home/CEISAM/blondel-a/soft/cfour2.1/cfour2.1-serial-mkl/bin/xvmol2ja
 @GETMEM-I,  Allocated  238418 MB of main memory.
 @CHECKOUT-I, Total execution time (CPU/WALL):        0.16/       0.06 seconds.
--executable xvmol2ja finished with status     0 in        0.61 seconds (walltime).
 --invoking executable--
/home/CEISAM/blondel-a/soft/cfour2.1/cfour2.1-serial-mkl/bin/xvscf
  There are   92 functions in the AO basis.

  There are 4 irreducible representations.

       Irrep        # of functions
         1                 38
         2                 22
         3                 22
         4                 10


  Parameters for SCF calculation: 
        SCF reference function:  RHF  
  Maximum number of iterations:  150
     Full symmetry point group: CXv 
     Computational point group: C2v 
        Initial density matrix: MOREAD                 
     SCF convergence tolerance: 10**(- 8)
  DIIS convergence acceleration:  ON
          Latest start for DIIS:   8
                     DIIS order:   6

  Memory information:     434642 words required.
  Fock matrices are constructed from AO integral file.
 @GETMEM-I,  Allocated       3 MB of main memory.
  Initialization and symmetry analysis required      0.003 seconds.

  @INITGES-I, Occupancies from core Hamiltonian:

          Alpha population by irrep:   5    1    1    0
           Beta population by irrep:   5    1    1    0


 total no. of electrons in initial guess :  0.000000000000000E+000
  --------------------------------------------------------------------
  Iteration         Total Energy            Largest Density Difference
  --------------------------------------------------------------------
       0            22.408048589070660              0.0000000000D+00
   current occupation vector 
     5  1  1  0
     5  1  1  0
       1           -93.621510780872796              0.1313411998D+02
   current occupation vector 
     5  1  1  0
     5  1  1  0
       2           -97.236175059962747              0.1312977378D+02
   current occupation vector 
     5  1  1  0
     5  1  1  0
       3          -103.512888306911890              0.9956581011D+01
   current occupation vector 
     5  1  1  0
     5  1  1  0
       4          -100.486179412930085              0.7252816518D+01
   current occupation vector 
     5  1  1  0
     5  1  1  0
       5          -103.311521249808266              0.5729123518D+01
   current occupation vector 
     5  1  1  0
     5  1  1  0
       6          -100.396662594627415              0.5727365702D+01
   current occupation vector 
     5  1  1  0
     5  1  1  0
       7          -103.257540083874389              0.5523473181D+01
   current occupation vector 
     5  1  1  0
     5  1  1  0
       8          -100.235828625086612              0.5509754073D+01
   current occupation vector 
     5  1  1  0
     5  1  1  0
       9          -110.840848479787383              0.4228957523D+01
   current occupation vector 
     5  1  1  0
     5  1  1  0
      10          -112.258870155353634              0.9643320498D+00
   current occupation vector 
     5  1  1  0
     5  1  1  0
      11          -112.764469500722811              0.5492764774D+00
   current occupation vector 
     5  1  1  0
     5  1  1  0
      12          -112.780203191673166              0.1017426116D+00
   current occupation vector 
     5  1  1  0
     5  1  1  0
      13          -112.780648917640036              0.2247135586D-01
   current occupation vector 
     5  1  1  0
     5  1  1  0
      14          -112.780734160842542              0.1404540202D-01
   current occupation vector 
     5  1  1  0
     5  1  1  0
      15          -112.780737663311555              0.3792533646D-02
   current occupation vector 
     5  1  1  0
     5  1  1  0
      16          -112.780737698393921              0.3209580902D-03
   current occupation vector 
     5  1  1  0
     5  1  1  0
      17          -112.780737699020904              0.3363955882D-04
   current occupation vector 
     5  1  1  0
     5  1  1  0
      18          -112.780737699045716              0.6181956185D-05
   current occupation vector 
     5  1  1  0
     5  1  1  0
      19          -112.780737699046512              0.1380788778D-05
   current occupation vector 
     5  1  1  0
     5  1  1  0
      20          -112.780737699047307              0.1622117638D-06
   current occupation vector 
     5  1  1  0
     5  1  1  0
      21          -112.780737699047108              0.1785612042D-07
   current occupation vector 
     5  1  1  0
     5  1  1  0

  SCF has converged.

 Density matrix saved to file den.dat
 total electron number:   14.0000000000000     
     E(SCF)=      -112.780737699046597              0.4568787793D-08

  Eigenvector printing suppressed.

 @PUTMOS-I, Writing converged MOs to NEWMOS. 
 @PUTMOS-I, Symmetry   1 Full Blocks  9 Partial Blocksize   2
 @PUTMOS-I, Symmetry   2 Full Blocks  5 Partial Blocksize   2
 @PUTMOS-I, Symmetry   3 Full Blocks  5 Partial Blocksize   2
 @PUTMOS-I, Symmetry   4 Full Blocks  2 Partial Blocksize   2
 @PUTFOCK-I, Writing converged Fock matrix to NEWFOCK. 
 @PUTFOCK-I, Symmetry   1 Full Blocks  9 Partial Blocksize   2
 @PUTFOCK-I, Symmetry   2 Full Blocks  5 Partial Blocksize   2
 @PUTFOCK-I, Symmetry   3 Full Blocks  5 Partial Blocksize   2
 @PUTFOCK-I, Symmetry   4 Full Blocks  2 Partial Blocksize   2


 
  ORBITAL EIGENVALUES (ALPHA)  (1H = 27.2113834 eV)

       MO #        E(hartree)               E(eV)           FULLSYM    COMPSYM
       ----   --------------------   --------------------   -------   ---------
    1     1         -20.6684180932        -562.4162490067     SG+        A1 (1)
    2     2         -11.3643108924        -309.2386207706     SG+        A1 (1)
    3     3          -1.5194102344         -41.3452544289     SG+        A1 (1)
    4     4          -0.8044591745         -21.8904470282     SG+        A1 (1)
    5    61          -0.6382302617         -17.3671283473      PI        B2 (3)
    6    39          -0.6382302617         -17.3671283473      PI        B1 (2)
    7     5          -0.5555452437         -15.1171546225     SG+        A1 (1)
  +++++++++++++++++++++++++++++++++++++++++++++++++++++++++++++++++++++++++++++
    8     6           0.0693503575           1.8871191658     SG+        A1 (1)
    9    62           0.0700098361           1.9050644931      PI        B2 (3)
   10    40           0.0700098361           1.9050644931      PI        B1 (2)
   11     7           0.0877478733           2.3877410220     SG+        A1 (1)
   12    41           0.1524638544           4.1487523964      PI        B1 (2)
   13    63           0.1524638544           4.1487523964      PI        B2 (3)
   14     8           0.1852720425           5.0415085815     SG+        A1 (1)
   15    64           0.1981449776           5.3917989536      PI        B2 (3)
   16    42           0.1981449776           5.3917989536      PI        B1 (2)
   17     9           0.2688796499           7.3165872430     SG+        A1 (1)
   18    83           0.2961054844           8.0574398625      DE        A2 (4)
   19    10           0.2961054844           8.0574398625      DE        A1 (1)
   20    11           0.3924118406          10.6780690446     SG+        A1 (1)
   21    43           0.4137873513          11.2597262628      PI        B1 (2)
   22    65           0.4137873513          11.2597262628      PI        B2 (3)
   23    12           0.5001983606          13.6110893671     SG+        A1 (1)
   24    66           0.5079672848          13.8224925415      PI        B2 (3)
   25    44           0.5079672848          13.8224925415      PI        B1 (2)
   26    13           0.6701205551          18.2349073496     SG+        A1 (1)
   27    84           0.7248386346          19.7238619888      DE        A2 (4)
   28    14           0.7248386346          19.7238619888      DE        A1 (1)
   29    15           0.7872570869          21.4223544267     SG+        A1 (1)
   30    67           0.8416439342          22.9022957795      PI        B2 (3)
   31    45           0.8416439342          22.9022957795      PI        B1 (2)
   32    16           1.0059501408          27.3732949626     SG+        A1 (1)
   33    17           1.0473845470          28.5007824764      DE        A1 (1)
   34    85           1.0473845470          28.5007824764      DE        A2 (4)
   35    46           1.0722216087          29.1766332832      PH        B1 (2)
   36    68           1.0722216087          29.1766332832      PH        B2 (3)
   37    47           1.0874918273          29.5921570563      PI        B1 (2)
   38    69           1.0874918273          29.5921570563      PI        B2 (3)
   39    70           1.2200613117          33.1995561252      PI        B2 (3)
   40    48           1.2200613117          33.1995561252      PI        B1 (2)
   41    18           1.2519838437          34.0682123828     SG+        A1 (1)
   42    86           1.2754418008          34.7065358449      DE        A2 (4)
   43    19           1.2754418008          34.7065358449      DE        A1 (1)
   44    20           1.3814526339          37.5912372696     SG+        A1 (1)
   45    71           1.4882031092          40.4960653807      PI        B2 (3)
   46    49           1.4882031092          40.4960653807      PI        B1 (2)
   47    21           1.5326583675          41.7057544591     SG+        A1 (1)
   48    50           2.1425131043          58.3007455202      PH        B1 (2)
   49    72           2.1425131043          58.3007455202      PH        B2 (3)
   50    87           2.1786411054          59.2838384112      DE        A2 (4)
   51    22           2.1786411054          59.2838384112      DE        A1 (1)
   52    73           2.3221731944          63.1895451135      PI        B2 (3)
   53    51           2.3221731944          63.1895451135      PI        B1 (2)
   54    23           2.3582357883          64.1708581829     SG+        A1 (1)
   55    24           2.4350775791          66.2618296147     SG+        A1 (1)
   56    74           2.5691389634          69.9098253406      PI        B2 (3)
   57    52           2.5691389634          69.9098253406      PI        B1 (2)
   58    25           2.5804508197          70.2176365984      DE        A1 (1)
   59    88           2.5804508197          70.2176365984      DE        A2 (4)
   60    26           2.6735074363          72.7498358712     SG+        A1 (1)
   61    75           2.9683229099          80.7721727550      PI        B2 (3)
   62    53           2.9683229099          80.7721727550      PI        B1 (2)
   63    27           3.3941551012          92.3596557768      DE        A1 (1)
   64    89           3.3941551012          92.3596557768      DE        A2 (4)
   65    76           3.4193381465          93.0449212777      PH        B2 (3)
   66    54           3.4193381465          93.0449212777      PH        B1 (2)
   67    28           3.4796987815          94.6874176609     SG+        A1 (1)
   68    77           3.6218824925          98.5564331329      PI        B2 (3)
   69    55           3.6218824925          98.5564331329      PI        B1 (2)
   70    90           3.7397976084         101.7650665607      DE        A2 (4)
   71    29           3.7397976084         101.7650665607      DE        A1 (1)
   72    78           3.9831489504         108.3869932287      PI        B2 (3)
   73    56           3.9831489504         108.3869932287      PI        B1 (2)
   74    30           4.0191699085         109.3671733312     SG+        A1 (1)
   75    31           4.3759262505         119.0750069326     SG+        A1 (1)
   76    79           5.2187033222         142.0081369525      PI        B2 (3)
   77    57           5.2187033222         142.0081369525      PI        B1 (2)
   78    32           5.3267992034         144.9495754193     SG+        A1 (1)
   79    80           6.4667079657         175.9680697905      PH        B2 (3)
   80    58           6.4667079657         175.9680697905      PH        B1 (2)
   81    33           6.7459532682         183.5667207795      DE        A1 (1)
   82    91           6.7459532682         183.5667207795      DE        A2 (4)
   83    92           7.0264218248         191.1986582054      DE        A2 (4)
   84    34           7.0264218248         191.1986582054      DE        A1 (1)
   85    81           7.0965916057         193.1080750151      PI        B2 (3)
   86    59           7.0965916057         193.1080750151      PI        B1 (2)
   87    35           7.2011917713         195.9543902269     SG+        A1 (1)
   88    82           7.4289056022         202.1507985843      PI        B2 (3)
   89    60           7.4289056022         202.1507985843      PI        B1 (2)
   90    36           7.6033547041         206.8977999799     SG+        A1 (1)
   91    37          12.5019092350         340.1942454266     SG+        A1 (1)
   92    38          15.1652338122         412.6669916140     SG+        A1 (1)


  VSCF finished.

 @CHECKOUT-I, Total execution time (CPU/WALL):        5.83/       0.78 seconds.
--executable xvscf finished with status     0 in        1.33 seconds (walltime).
 --invoking executable--
/home/CEISAM/blondel-a/soft/cfour2.1/cfour2.1-serial-mkl/bin/xvtran
 @GETMEM-I,  Allocated  238418 MB of main memory.
  Full RHF integral transformation
  The following   2 MOs will be dropped:
    1  2
  There are  90 active molecular orbitals.
  Transformation of IIII integrals :
  1 pass through the AO integral file was required.
      195611 AO integrals were read.
      265389 MO integrals were written to HF2.
  Transformation of IIJJ integrals :
  1 pass through the AO integral file was required.
      399465 AO integrals were read.
      457130 MO integrals were written to HF2.
  Transformation of IJIJ integrals :
  1 pass through the AO integral file was required.
      731801 AO integrals were read.
      817851 MO integrals were written to HF2.
  Transformation of IJKL integrals :
  1 pass through the AO integral file was required.
      472704 AO integrals were read.
      501532 MO integrals were written to HF2.
  Summary of active molecular orbitals: 
------------------------------------------------------------------------
 
  Index      Eigenvalue    Symmetry    Index      Eigenvalue    Symmetry
------------------------------------------------------------------------
     1        -1.5194102        1        46         1.0874918        2
     2        -0.8044592        1        47         1.2200613        2
     3        -0.5555452        1        48         1.4882031        2
     4        -0.6382303        2        49         2.1425131        2
     5        -0.6382303        3        50         2.3221732        2
     6         0.0693504        1        51         2.5691390        2
     7         0.0877479        1        52         2.9683229        2
     8         0.1852720        1        53         3.4193381        2
     9         0.2688796        1        54         3.6218825        2
    10         0.2961055        1        55         3.9831490        2
    11         0.3924118        1        56         5.2187033        2
    12         0.5001984        1        57         6.4667080        2
    13         0.6701206        1        58         7.0965916        2
    14         0.7248386        1        59         7.4289056        2
    15         0.7872571        1        60         0.0700098        3
    16         1.0059501        1        61         0.1524639        3
    17         1.0473845        1        62         0.1981450        3
    18         1.2519838        1        63         0.4137874        3
    19         1.2754418        1        64         0.5079673        3
    20         1.3814526        1        65         0.8416439        3
    21         1.5326584        1        66         1.0722216        3
    22         2.1786411        1        67         1.0874918        3
    23         2.3582358        1        68         1.2200613        3
    24         2.4350776        1        69         1.4882031        3
    25         2.5804508        1        70         2.1425131        3
    26         2.6735074        1        71         2.3221732        3
    27         3.3941551        1        72         2.5691390        3
    28         3.4796988        1        73         2.9683229        3
    29         3.7397976        1        74         3.4193381        3
    30         4.0191699        1        75         3.6218825        3
    31         4.3759263        1        76         3.9831490        3
    32         5.3267992        1        77         5.2187033        3
    33         6.7459533        1        78         6.4667080        3
    34         7.0264218        1        79         7.0965916        3
    35         7.2011918        1        80         7.4289056        3
    36         7.6033547        1        81         0.2961055        4
    37        12.5019092        1        82         0.7248386        4
    38        15.1652338        1        83         1.0473845        4
    39         0.0700098        2        84         1.2754418        4
    40         0.1524639        2        85         2.1786411        4
    41         0.1981450        2        86         2.5804508        4
    42         0.4137874        2        87         3.3941551        4
    43         0.5079673        2        88         3.7397976        4
    44         0.8416439        2        89         6.7459533        4
    45         1.0722216        2        90         7.0264218        4
------------------------------------------------------------------------
  -1.51941023435561      -0.804459174547075      -0.555545243706150     
 -0.638230261653821      -0.638230261653838       6.935035746066139E-002
  8.774787326659672E-002  0.185272042488835       0.268879649940845     
  0.296105484388329       0.392411840576842       0.500198360628102     
  0.670120555120803       0.724838634584042       0.787257086924943     
   1.00595014080141        1.04738454702920        1.25198384374644     
   1.27544180076306        1.38145263388389        1.53265836749295     
   2.17864110544251        2.35823578829345        2.43507757913929     
   2.58045081965362        2.67350743627397        3.39415510116239     
   3.47969878153775        3.73979760840431        4.01916990854607     
   4.37592625050592        5.32679920342758        6.74595326820045     
   7.02642182482440        7.20119177134108        7.60335470411670     
   12.5019092350373        15.1652338121839       7.000983614280082E-002
  0.152463854387605       0.198144977576029       0.413787351318869     
  0.507967284806439       0.841643934189593        1.07222160866691     
   1.08749182727300        1.22006131173796        1.48820310916962     
   2.14251310428563        2.32217319437964        2.56913896338599     
   2.96832290985286        3.41933814646570        3.62188249248961     
   3.98314895040366        5.21870332224594        6.46670796570031     
   7.09659160566846        7.42890560221548       7.000983614278788E-002
  0.152463854387607       0.198144977576001       0.413787351318913     
  0.507967284806432       0.841643934189576        1.07222160866692     
   1.08749182727307        1.22006131173794        1.48820310916961     
   2.14251310428563        2.32217319437954        2.56913896338591     
   2.96832290985205        3.41933814646568        3.62188249248959     
   3.98314895040351        5.21870332224555        6.46670796570028     
   7.09659160566842        7.42890560221484       0.296105484388318     
  0.724838634584027        1.04738454702920        1.27544180076305     
   2.17864110544251        2.58045081965365        3.39415510116240     
   3.73979760840428        6.74595326820050        7.02642182482436     
 @CHECKOUT-I, Total execution time (CPU/WALL):        9.70/       0.63 seconds.
--executable xvtran finished with status     0 in        1.18 seconds (walltime).
 --invoking executable--
/home/CEISAM/blondel-a/soft/cfour2.1/cfour2.1-serial-mkl/bin/xintprc
 @GETMEM-I,  Allocated  238418 MB of main memory.
  @GMOIAA-I, Processing MO integrals for spin case AA.
  @GMOIAA-I, Generation of integral list completed.
                      TYPE                NUMBER
                      ----               --------
                      PPPP               1618554
                      PPPH                383448
                      PPHH                 23402
                      PHPH                 14626
                      PHHH                  1823
                      HHHH                    49

                     TOTAL               2041902

  @FORMT2-I, Second-order MP correlation energies:
            ------------------------------------------------
            E(SCF)                  =   -112.780737699047 a.u.
            E2(AA)                  =     -0.045677190832 a.u.
            E2(AB)                  =     -0.270257818426 a.u.
            E2(TOT)                 =     -0.361612200091 a.u.
            Total MP2 energy        =   -113.142349899138 a.u.
            ------------------------------------------------
   Largest T2 amplitudes for spin case AB:
       _       _                 _       _                 _       _
   i   j   a   b             i   j   a   b             i   j   a   b
-----------------------------------------------------------------------------
[  4   4  40  40]-0.03906 [  5   5  61  61]-0.03906 [  5   4  61  40]-0.03137
[  4   5  40  61]-0.03137 [  3   3  61  61]-0.02991 [  3   3  40  40]-0.02991
[  4   4  39  40]-0.02006 [  4   4  40  39]-0.02006 [  5   5  61  60]-0.02006
[  5   5  60  61]-0.02006 [  3   3  15  15]-0.01992 [  5   5  62  61]-0.01918
[  5   5  61  62]-0.01918 [  4   4  41  40]-0.01918 [  4   4  40  41]-0.01918
-----------------------------------------------------------------------------
   Norm of T2AB vector (    47537 symmetry allowed elements):  0.2791880945.
-----------------------------------------------------------------------------
 @CHECKOUT-I, Total execution time (CPU/WALL):        4.03/       0.59 seconds.
--executable xintprc finished with status     0 in        1.15 seconds (walltime).
  calling xvcc 
 --invoking executable--
/home/CEISAM/blondel-a/soft/cfour2.1/cfour2.1-serial-mkl/bin/xvcc
 @GETMEM-I,  Allocated  238418 MB of main memory.
   CC2 energy will be calculated.
   The total correlation energy is -0.361612200091 a.u.
   The total correlation energy is -0.361056171754 a.u.
  Convergence information after     1 iterations: 
  Largest element of residual vector :  0.26208576E-01.
  Largest element of DIIS residual   :  0.26208576E-01.
   The total correlation energy is -0.367614198677 a.u.
  Convergence information after     2 iterations: 
  Largest element of residual vector : -0.38749185E-02.
  Largest element of DIIS residual   : -0.37470154E-02.
   The total correlation energy is -0.368053670672 a.u.
  Convergence information after     3 iterations: 
  Largest element of residual vector :  0.62624357E-02.
  Largest element of DIIS residual   :  0.13746215E-02.
   The total correlation energy is -0.369679663587 a.u.
  Convergence information after     4 iterations: 
  Largest element of residual vector :  0.44167096E-03.
  Largest element of DIIS residual   : -0.40311495E-03.
   The total correlation energy is -0.369719355119 a.u.
  Convergence information after     5 iterations: 
  Largest element of residual vector :  0.19148203E-03.
  Largest element of DIIS residual   : -0.76416639E-04.
   The total correlation energy is -0.369720004990 a.u.
  Convergence information after     6 iterations: 
  Largest element of residual vector :  0.31003962E-04.
  Largest element of DIIS residual   :  0.23518997E-04.
   The total correlation energy is -0.369722441606 a.u.
  Convergence information after     7 iterations: 
  Largest element of residual vector :  0.69410028E-05.
  Largest element of DIIS residual   :  0.41368314E-05.
   The total correlation energy is -0.369722231403 a.u.
  Convergence information after     8 iterations: 
  Largest element of residual vector :  0.21249663E-05.
  Largest element of DIIS residual   :  0.90944895E-06.
   The total correlation energy is -0.369722474024 a.u.
  Convergence information after     9 iterations: 
  Largest element of residual vector : -0.42164489E-06.
  Largest element of DIIS residual   : -0.41707753E-06.
   The total correlation energy is -0.369722523409 a.u.
  Convergence information after    10 iterations: 
  Largest element of residual vector :  0.21526358E-06.
  Largest element of DIIS residual   :  0.16385160E-06.
   The total correlation energy is -0.369722569346 a.u.
  Convergence information after    11 iterations: 
  Largest element of residual vector : -0.65983261E-07.
  Largest element of DIIS residual   : -0.51288707E-07.
  Amplitude equations converged in    11iterations.
   The total correlation energy is -0.369722575323 a.u.
   The CC iterations have converged.

   Largest T1 amplitudes for spin case AA:
   i       a                 i       a                 i       a    
-----------------------------------------------------------------------------
[  5      61    ] 0.03857 [  4      40    ] 0.03857 [  4      43    ] 0.01721
[  5      64    ] 0.01721 [  5      60    ] 0.01642 [  4      39    ] 0.01642
[  4      46    ] 0.01167 [  5      67    ] 0.01167 [  3       9    ]-0.01135
[  3       6    ] 0.00983 [  5      62    ] 0.00941 [  4      41    ] 0.00941
[  3      15    ]-0.00880 [  2      15    ] 0.00713 [  2      11    ]-0.00652
-----------------------------------------------------------------------------
   Norm of T1AA vector (      141 symmetry allowed elements):  0.0747264691.
-----------------------------------------------------------------------------
   Largest T2 amplitudes for spin case AB:
       _       _                 _       _                 _       _
   i   j   a   b             i   j   a   b             i   j   a   b
-----------------------------------------------------------------------------
[  5   5  61  61]-0.04471 [  4   4  40  40]-0.04471 [  5   4  61  40]-0.03602
[  4   5  40  61]-0.03602 [  3   3  61  61]-0.02898 [  3   3  40  40]-0.02898
[  4   4  40  39]-0.02288 [  4   4  39  40]-0.02288 [  5   5  61  60]-0.02288
[  5   5  60  61]-0.02288 [  5   5  62  61]-0.02169 [  5   5  61  62]-0.02169
[  4   4  41  40]-0.02169 [  4   4  40  41]-0.02169 [  3   3  15  15]-0.02040
-----------------------------------------------------------------------------
   Norm of T2AB vector (    47537 symmetry allowed elements):  0.2913014075.
-----------------------------------------------------------------------------
       Summary of iterative solution of CC equations 
      -----------------------------------------------------------
                       Correlation           Total
       Iteration         Energy              Energy
      -----------------------------------------------------------
            0        -0.361612200091    -113.142349899138  DIIS 
            1        -0.361056171754    -113.141793870801  DIIS 
            2        -0.367614198677    -113.148351897723  DIIS 
            3        -0.368053670672    -113.148791369718  DIIS 
            4        -0.369679663587    -113.150417362633  DIIS 
            5        -0.369719355119    -113.150457054166  DIIS 
            6        -0.369720004990    -113.150457704036  DIIS 
            7        -0.369722441606    -113.150460140653  DIIS 
            8        -0.369722231403    -113.150459930450  DIIS 
            9        -0.369722474024    -113.150460173071  DIIS 
           10        -0.369722523409    -113.150460222456  DIIS 
           11        -0.369722575323    -113.150460274370  DIIS 
      -----------------------------------------------------------
      A miracle has come to pass. The CC iterations have converged.
      The reference energy is      -112.78073769904660 a.u.
      The correlation energy is      -0.36972257532326 a.u.
      The total energy is          -113.15046027436986 a.u.
 @CHECKOUT-I, Total execution time (CPU/WALL):       24.79/       1.31 seconds.
--executable xvcc finished with status     0 in        1.86 seconds (walltime).
 --invoking executable--
/home/CEISAM/blondel-a/soft/cfour2.1/cfour2.1-serial-mkl/bin/xlambda
 @GETMEM-I,  Allocated  238418 MB of main memory.
 Hbar is calculated for a CC2 wave function.
 Calculation of Hbar completed.
 @CHECKOUT-I, Total execution time (CPU/WALL):        6.60/       0.40 seconds.
--executable xlambda finished with status     0 in        0.96 seconds (walltime).
 --invoking executable--
/home/CEISAM/blondel-a/soft/cfour2.1/cfour2.1-serial-mkl/bin/xvee
 @GETMEM-I,  Allocated  238418 MB of main memory.
  cc2 and ccprog  T                     0
  EOMEE-CC2 excitation energies will be evaluated.
  @SETMET-I, VPROP property integrals are used.
  @SETMET-I, A total of  16 target states will be studied.
  Summary of active alpha molecular orbitals:
------------------------------------------------------------------------------
Orbital      Sym   Eigenvalue  <xx>     <yy>     <zz>     <xy>     <xz>     <yz>
        SCF
  #  position
------------------------------------------------------------------------------
   1      3    1      -1.5194   0.000    0.000    0.000    0.000    0.000    0.000
   2      4    1      -0.8045   0.000    0.000    0.000    0.000    0.000    0.000
   3      7    1      -0.5555   0.000    0.000    0.000    0.000    0.000    0.000
   4      6    2      -0.6382   0.000    0.000    0.000    0.000    0.000    0.000
   5      5    3      -0.6382   0.000    0.000    0.000    0.000    0.000    0.000
   6      8    1       0.0694   0.000    0.000    0.000    0.000    0.000    0.000
   7     11    1       0.0877   0.000    0.000    0.000    0.000    0.000    0.000
   8     14    1       0.1853   0.000    0.000    0.000    0.000    0.000    0.000
   9     17    1       0.2689   0.000    0.000    0.000    0.000    0.000    0.000
  10     19    1       0.2961   0.000    0.000    0.000    0.000    0.000    0.000
  11     20    1       0.3924   0.000    0.000    0.000    0.000    0.000    0.000
  12     23    1       0.5002   0.000    0.000    0.000    0.000    0.000    0.000
  13     26    1       0.6701   0.000    0.000    0.000    0.000    0.000    0.000
  14     28    1       0.7248   0.000    0.000    0.000    0.000    0.000    0.000
  15     29    1       0.7873   0.000    0.000    0.000    0.000    0.000    0.000
  16     32    1       1.0060   0.000    0.000    0.000    0.000    0.000    0.000
  17     33    1       1.0474   0.000    0.000    0.000    0.000    0.000    0.000
  18     41    1       1.2520   0.000    0.000    0.000    0.000    0.000    0.000
  19     43    1       1.2754   0.000    0.000    0.000    0.000    0.000    0.000
  20     44    1       1.3815   0.000    0.000    0.000    0.000    0.000    0.000
  21     47    1       1.5327   0.000    0.000    0.000    0.000    0.000    0.000
  22     51    1       2.1786   0.000    0.000    0.000    0.000    0.000    0.000
  23     54    1       2.3582   0.000    0.000    0.000    0.000    0.000    0.000
  24     55    1       2.4351   0.000    0.000    0.000    0.000    0.000    0.000
  25     58    1       2.5805   0.000    0.000    0.000    0.000    0.000    0.000
  26     60    1       2.6735   0.000    0.000    0.000    0.000    0.000    0.000
  27     63    1       3.3942   0.000    0.000    0.000    0.000    0.000    0.000
  28     67    1       3.4797   0.000    0.000    0.000    0.000    0.000    0.000
  29     71    1       3.7398   0.000    0.000    0.000    0.000    0.000    0.000
  30     74    1       4.0192   0.000    0.000    0.000    0.000    0.000    0.000
  31     75    1       4.3759   0.000    0.000    0.000    0.000    0.000    0.000
  32     78    1       5.3268   0.000    0.000    0.000    0.000    0.000    0.000
  33     81    1       6.7460   0.000    0.000    0.000    0.000    0.000    0.000
  34     84    1       7.0264   0.000    0.000    0.000    0.000    0.000    0.000
  35     87    1       7.2012   0.000    0.000    0.000    0.000    0.000    0.000
  36     90    1       7.6034   0.000    0.000    0.000    0.000    0.000    0.000
  37     91    1      12.5019   0.000    0.000    0.000    0.000    0.000    0.000
  38     92    1      15.1652   0.000    0.000    0.000    0.000    0.000    0.000
  39     10    2       0.0700   0.000    0.000    0.000    0.000    0.000    0.000
  40     12    2       0.1525   0.000    0.000    0.000    0.000    0.000    0.000
  41     16    2       0.1981   0.000    0.000    0.000    0.000    0.000    0.000
  42     21    2       0.4138   0.000    0.000    0.000    0.000    0.000    0.000
  43     25    2       0.5080   0.000    0.000    0.000    0.000    0.000    0.000
  44     31    2       0.8416   0.000    0.000    0.000    0.000    0.000    0.000
  45     35    2       1.0722   0.000    0.000    0.000    0.000    0.000    0.000
  46     37    2       1.0875   0.000    0.000    0.000    0.000    0.000    0.000
  47     40    2       1.2201   0.000    0.000    0.000    0.000    0.000    0.000
  48     46    2       1.4882   0.000    0.000    0.000    0.000    0.000    0.000
  49     48    2       2.1425   0.000    0.000    0.000    0.000    0.000    0.000
  50     53    2       2.3222   0.000    0.000    0.000    0.000    0.000    0.000
  51     57    2       2.5691   0.000    0.000    0.000    0.000    0.000    0.000
  52     62    2       2.9683   0.000    0.000    0.000    0.000    0.000    0.000
  53     66    2       3.4193   0.000    0.000    0.000    0.000    0.000    0.000
  54     69    2       3.6219   0.000    0.000    0.000    0.000    0.000    0.000
  55     73    2       3.9831   0.000    0.000    0.000    0.000    0.000    0.000
  56     77    2       5.2187   0.000    0.000    0.000    0.000    0.000    0.000
  57     80    2       6.4667   0.000    0.000    0.000    0.000    0.000    0.000
  58     86    2       7.0966   0.000    0.000    0.000    0.000    0.000    0.000
  59     89    2       7.4289   0.000    0.000    0.000    0.000    0.000    0.000
  60      9    3       0.0700   0.000    0.000    0.000    0.000    0.000    0.000
  61     13    3       0.1525   0.000    0.000    0.000    0.000    0.000    0.000
  62     15    3       0.1981   0.000    0.000    0.000    0.000    0.000    0.000
  63     22    3       0.4138   0.000    0.000    0.000    0.000    0.000    0.000
  64     24    3       0.5080   0.000    0.000    0.000    0.000    0.000    0.000
  65     30    3       0.8416   0.000    0.000    0.000    0.000    0.000    0.000
  66     36    3       1.0722   0.000    0.000    0.000    0.000    0.000    0.000
  67     38    3       1.0875   0.000    0.000    0.000    0.000    0.000    0.000
  68     39    3       1.2201   0.000    0.000    0.000    0.000    0.000    0.000
  69     45    3       1.4882   0.000    0.000    0.000    0.000    0.000    0.000
  70     49    3       2.1425   0.000    0.000    0.000    0.000    0.000    0.000
  71     52    3       2.3222   0.000    0.000    0.000    0.000    0.000    0.000
  72     56    3       2.5691   0.000    0.000    0.000    0.000    0.000    0.000
  73     61    3       2.9683   0.000    0.000    0.000    0.000    0.000    0.000
  74     65    3       3.4193   0.000    0.000    0.000    0.000    0.000    0.000
  75     68    3       3.6219   0.000    0.000    0.000    0.000    0.000    0.000
  76     72    3       3.9831   0.000    0.000    0.000    0.000    0.000    0.000
  77     76    3       5.2187   0.000    0.000    0.000    0.000    0.000    0.000
  78     79    3       6.4667   0.000    0.000    0.000    0.000    0.000    0.000
  79     85    3       7.0966   0.000    0.000    0.000    0.000    0.000    0.000
  80     88    3       7.4289   0.000    0.000    0.000    0.000    0.000    0.000
  81     18    4       0.2961   0.000    0.000    0.000    0.000    0.000    0.000
  82     27    4       0.7248   0.000    0.000    0.000    0.000    0.000    0.000
  83     34    4       1.0474   0.000    0.000    0.000    0.000    0.000    0.000
  84     42    4       1.2754   0.000    0.000    0.000    0.000    0.000    0.000
  85     50    4       2.1786   0.000    0.000    0.000    0.000    0.000    0.000
  86     59    4       2.5805   0.000    0.000    0.000    0.000    0.000    0.000
  87     64    4       3.3942   0.000    0.000    0.000    0.000    0.000    0.000
  88     70    4       3.7398   0.000    0.000    0.000    0.000    0.000    0.000
  89     82    4       6.7460   0.000    0.000    0.000    0.000    0.000    0.000
  90     83    4       7.0264   0.000    0.000    0.000    0.000    0.000    0.000
------------------------------------------------------------------------------
  @DRVTDA-I, Roots obtained by Davidson method.
  calling tda davidson                       7                     1
  after tda davidson                      7                     7
                     4                     4
  kroot is                      4
  calling tda davidson                       7                     2
  after tda davidson                      7                     7
                     4                     4
  kroot is                      4
  calling tda davidson                       7                     3
  after tda davidson                      7                     7
                     4                     4
  kroot is                      4
  calling tda davidson                       7                     4
  after tda davidson                      7                     7
                     4                     4
  kroot is                      4
__________________________________________________________________________
    Tamm-Dancoff (CIS) Excitation Energies and Transition Moments

                Excitation         Transition Dipole         Oscillator
 Root  Symmetry  Energy         x           y           z     Strength
__________________________________________________________________________
   1       1    0.36823      0.0000      0.0000      0.0000  .00000000D+00
__________________________________________________________________________
 
__________________________________________________________________________
  TDA excitation ergy:             0.368225990204 a.u.   10.0199 eV
  Total TDA electronic energy:  -112.412511708843 a.u.
 
  Dominant contributions: 
  SCF eigenvalue ordering used in list below. 
--------------------------------------------------------------------------------
    I    j    A    b
--------------------------------------------------------------------------------
    5    0   13    0   0.5384833218 AA  
    6    0   12    0  -0.5384830856 AA  
    6    0   10    0  -0.3683856991 AA  
    5    0    9    0   0.3683851860 AA  
    5    0   15    0   0.2193786445 AA  
    6    0   16    0  -0.2193783170 AA  
    6    0   21    0  -0.1156363534 AA  
    5    0   22    0   0.1156360753 AA  
    6    0   25    0  -0.0931290811 AA  
    5    0   24    0   0.0931284750 AA  
    6    0   31    0  -0.0391875896 AA  
    5    0   30    0   0.0391874291 AA  
    5    0   38    0  -0.0372839058 AA  
    6    0   37    0   0.0372838167 AA  
    6    0   46    0  -0.0296604624 AA  
--------------------------------------------------------------------------------
   2       1    0.44884      0.0000      0.0000      0.0000  .00000000D+00
__________________________________________________________________________
 
__________________________________________________________________________
  TDA excitation ergy:             0.448844487379 a.u.   12.2137 eV
  Total TDA electronic energy:  -112.331893211668 a.u.
 
  Dominant contributions: 
  SCF eigenvalue ordering used in list below. 
--------------------------------------------------------------------------------
    I    j    A    b
--------------------------------------------------------------------------------
    7    0   11    0  -0.7551035253 AA  
    7    0    8    0  -0.5827455756 AA  
    7    0   14    0   0.1863320988 AA  
    6    0   12    0  -0.1151518318 AA  
    5    0   13    0  -0.1151518318 AA  
    7    0   17    0   0.0745552838 AA  
    7    0   23    0  -0.0622696535 AA  
    6    0   10    0  -0.0587243112 AA  
    5    0    9    0  -0.0587243112 AA  
    7    0   20    0   0.0578688646 AA  
    7    0   26    0  -0.0424061159 AA  
    4    0   11    0   0.0402074784 AA  
    6    0   25    0  -0.0385624118 AA  
    5    0   24    0  -0.0385624118 AA  
    7    0   29    0   0.0210376489 AA  
--------------------------------------------------------------------------------
   3       1    0.46797      0.0000      0.0000      0.0000  .00000000D+00
__________________________________________________________________________
 
__________________________________________________________________________
  TDA excitation ergy:             0.467974569513 a.u.   12.7342 eV
  Total TDA electronic energy:  -112.312763129534 a.u.
 
  Dominant contributions: 
  SCF eigenvalue ordering used in list below. 
--------------------------------------------------------------------------------
    I    j    A    b
--------------------------------------------------------------------------------
    7    0    8    0   0.7252156317 AA  
    7    0   11    0  -0.6107566892 AA  
    7    0   17    0  -0.2507790123 AA  
    7    0   14    0  -0.1169015541 AA  
    7    0   20    0   0.0928302934 AA  
    7    0   23    0  -0.0634463868 AA  
    6    0   10    0   0.0507707034 AA  
    5    0    9    0   0.0507707020 AA  
    4    0    8    0   0.0414275317 AA  
    6    0   16    0   0.0299295950 AA  
    5    0   15    0   0.0299295944 AA  
    4    0   14    0   0.0222058266 AA  
    4    0   20    0  -0.0209377426 AA  
    4    0   11    0   0.0201118292 AA  
    7    0   29    0  -0.0181443840 AA  
--------------------------------------------------------------------------------
   4       1    0.53903      0.0000      0.0000      0.0000  .00000000D+00
__________________________________________________________________________
 
__________________________________________________________________________
  TDA excitation ergy:             0.539029354521 a.u.   14.6677 eV
  Total TDA electronic energy:  -112.241708344525 a.u.
 
  Dominant contributions: 
  SCF eigenvalue ordering used in list below. 
--------------------------------------------------------------------------------
    I    j    A    b
--------------------------------------------------------------------------------
    6    0   10    0  -0.5164073228 AA  
    5    0    9    0  -0.5164064844 AA  
    7    0   14    0   0.4251486686 AA  
    7    0    8    0   0.2705856975 AA  
    5    0   13    0  -0.2058684793 AA  
    6    0   12    0  -0.2058684213 AA  
    7    0   17    0   0.1639456274 AA  
    7    0   20    0  -0.1577721009 AA  
    4    0    8    0   0.1560549714 AA  
    4    0   17    0  -0.0956974564 AA  
    7    0   29    0   0.0859351065 AA  
    4    0   32    0   0.0655539672 AA  
    5    0   15    0  -0.0627686768 AA  
    6    0   16    0  -0.0627683234 AA  
    4    0   20    0  -0.0612472877 AA  
--------------------------------------------------------------------------------
   1       2    0.33105      0.0000      0.0000      0.0000  .00000000D+00
__________________________________________________________________________
 
__________________________________________________________________________
  TDA excitation ergy:             0.331048813732 a.u.    9.0083 eV
  Total TDA electronic energy:  -112.449688885315 a.u.
 
  Dominant contributions: 
  SCF eigenvalue ordering used in list below. 
--------------------------------------------------------------------------------
    I    j    A    b
--------------------------------------------------------------------------------
    7    0   12    0  -0.7632168171 AA  
    7    0   10    0  -0.5289507495 AA  
    7    0   16    0  -0.2554141348 AA  
    7    0   25    0  -0.1423001154 AA  
    4    0   12    0  -0.1238092464 AA  
    7    0   21    0  -0.0991385817 AA  
    4    0   10    0  -0.0666391246 AA  
    7    0   31    0  -0.0585428792 AA  
    4    0   16    0  -0.0556509837 AA  
    4    0   21    0  -0.0495234532 AA  
    3    0   12    0  -0.0488055261 AA  
    4    0   25    0  -0.0361746177 AA  
    7    0   46    0  -0.0272431318 AA  
    4    0   37    0   0.0260784983 AA  
    6    0   17    0  -0.0254305655 AA  
--------------------------------------------------------------------------------
   2       2    0.47163      0.0000      0.0000      0.0000  .00000000D+00
__________________________________________________________________________
 
__________________________________________________________________________
  TDA excitation ergy:             0.471627219480 a.u.   12.8336 eV
  Total TDA electronic energy:  -112.309110479567 a.u.
 
  Dominant contributions: 
  SCF eigenvalue ordering used in list below. 
--------------------------------------------------------------------------------
    I    j    A    b
--------------------------------------------------------------------------------
    7    0   10    0   0.8236783751 AA  
    7    0   12    0  -0.5168857451 AA  
    7    0   25    0  -0.1791247626 AA  
    6    0    8    0   0.0894801543 AA  
    7    0   21    0  -0.0881724248 AA  
    4    0   10    0  -0.0317468060 AA  
    4    0   12    0  -0.0312549706 AA  
    6    0   17    0  -0.0300125290 AA  
    7    0   31    0  -0.0294391218 AA  
    6    0   11    0   0.0233163493 AA  
    6    0   14    0  -0.0186973239 AA  
    6    0   19    0   0.0164520422 AA  
    5    0   18    0   0.0164520422 AA  
    7    0   16    0   0.0158793728 AA  
    7    0   40    0  -0.0145728845 AA  
--------------------------------------------------------------------------------
   3       2    0.51128      0.0000      0.0000      0.0000  .00000000D+00
__________________________________________________________________________
 
__________________________________________________________________________
  TDA excitation ergy:             0.511278968590 a.u.   13.9126 eV
  Total TDA electronic energy:  -112.269458730457 a.u.
 
  Dominant contributions: 
  SCF eigenvalue ordering used in list below. 
--------------------------------------------------------------------------------
    I    j    A    b
--------------------------------------------------------------------------------
    6    0    8    0  -0.9330639922 AA  
    6    0   17    0   0.3160081146 AA  
    7    0   10    0   0.0788740345 AA  
    6    0   20    0   0.0697178471 AA  
    6    0   14    0   0.0561386468 AA  
    6    0   11    0  -0.0478594126 AA  
    6    0   26    0  -0.0458342296 AA  
    7    0   12    0  -0.0456801985 AA  
    7    0   16    0  -0.0387840537 AA  
    6    0   23    0   0.0348131817 AA  
    4    0   10    0  -0.0319741060 AA  
    4    0   12    0  -0.0319429111 AA  
    6    0   29    0   0.0265741073 AA  
    4    0   16    0  -0.0264611974 AA  
    6    0   32    0  -0.0256189240 AA  
--------------------------------------------------------------------------------
   4       2    0.56263      0.0000      0.0000      0.0000  .00000000D+00
__________________________________________________________________________
 
__________________________________________________________________________
  TDA excitation ergy:             0.562629118316 a.u.   15.3099 eV
  Total TDA electronic energy:  -112.218108580730 a.u.
 
  Dominant contributions: 
  SCF eigenvalue ordering used in list below. 
--------------------------------------------------------------------------------
    I    j    A    b
--------------------------------------------------------------------------------
    4    0   12    0  -0.5198174802 AA  
    7    0   16    0  -0.4609810237 AA  
    4    0   10    0  -0.4439280821 AA  
    6    0   11    0   0.3111101365 AA  
    4    0   16    0  -0.2822886754 AA  
    7    0   12    0   0.2382994379 AA  
    7    0   21    0  -0.1411148129 AA  
    4    0   21    0  -0.1200253757 AA  
    7    0   10    0   0.1060888436 AA  
    4    0   25    0  -0.0658474297 AA  
    6    0   19    0  -0.0656770230 AA  
    5    0   18    0  -0.0656770230 AA  
    6    0    8    0   0.0605461945 AA  
    4    0   31    0  -0.0598849115 AA  
    6    0   23    0   0.0544099874 AA  
--------------------------------------------------------------------------------
   1       3    0.33105      0.0000      0.0000      0.0000  .00000000D+00
__________________________________________________________________________
 
__________________________________________________________________________
  TDA excitation ergy:             0.331048813732 a.u.    9.0083 eV
  Total TDA electronic energy:  -112.449688885315 a.u.
 
  Dominant contributions: 
  SCF eigenvalue ordering used in list below. 
--------------------------------------------------------------------------------
    I    j    A    b
--------------------------------------------------------------------------------
    7    0   13    0  -0.7632168171 AA  
    7    0    9    0  -0.5289507495 AA  
    7    0   15    0  -0.2554141348 AA  
    7    0   24    0  -0.1423001154 AA  
    4    0   13    0  -0.1238092464 AA  
    7    0   22    0  -0.0991385817 AA  
    4    0    9    0  -0.0666391246 AA  
    7    0   30    0  -0.0585428792 AA  
    4    0   15    0  -0.0556509837 AA  
    4    0   22    0  -0.0495234532 AA  
    3    0   13    0  -0.0488055261 AA  
    4    0   24    0  -0.0361746177 AA  
    7    0   45    0  -0.0272431318 AA  
    4    0   38    0   0.0260784983 AA  
    5    0   17    0  -0.0254305655 AA  
--------------------------------------------------------------------------------
   2       3    0.47163      0.0000      0.0000      0.0000  .00000000D+00
__________________________________________________________________________
 
__________________________________________________________________________
  TDA excitation ergy:             0.471627219480 a.u.   12.8336 eV
  Total TDA electronic energy:  -112.309110479567 a.u.
 
  Dominant contributions: 
  SCF eigenvalue ordering used in list below. 
--------------------------------------------------------------------------------
    I    j    A    b
--------------------------------------------------------------------------------
    7    0    9    0   0.8236783751 AA  
    7    0   13    0  -0.5168857451 AA  
    7    0   24    0  -0.1791247626 AA  
    5    0    8    0   0.0894801543 AA  
    7    0   22    0  -0.0881724248 AA  
    4    0    9    0  -0.0317468060 AA  
    4    0   13    0  -0.0312549706 AA  
    5    0   17    0  -0.0300125290 AA  
    7    0   30    0  -0.0294391218 AA  
    5    0   11    0   0.0233163493 AA  
    5    0   14    0  -0.0186973239 AA  
    6    0   18    0   0.0164520422 AA  
[...]
    7    7   29    9   0.0327449701 ABAB
--------------------------------------------------------------------------------
  Converged eigenvector, normalized to one 
  SCF eigenvalue ordering used in list below. 
--------------------------------------------------------------------------------
    I    j    A    b
--------------------------------------------------------------------------------
    7    0    9    0   0.5338209115 AA  
    7    0   13    0  -0.3970723425 AA  
    7    0   24    0  -0.1200533485 AA  
    4    0   13    0  -0.0762725487 AA  
    7    0   15    0   0.0495922790 AA  
    7    0   22    0  -0.0432147764 AA  
    5    0    8    0   0.0369852235 AA  
    7    7    9   11  -0.0362630179 ABAB
    7    7   11    9  -0.0362630179 ABAB
    6    7   12    9   0.0353245074 ABAB
    7    6    9   12   0.0353245074 ABAB
    7    7    9    8  -0.0332503166 ABAB
    7    7    8    9  -0.0332503166 ABAB
    7    7    9   29   0.0327449701 ABAB
    7    7   29    9   0.0327449701 ABAB
--------------------------------------------------------------------------------

  Eigenvector is saved on CCRE_3_2  

  Adding new vector to expansion space.
  Guess for next eigenvalue   0.511278968590095     
 29  29  0.5005721620D+00  0.1362126102D+02  0.7024961295D+00  0.4249066559D-01
 30  30  0.4999189757D+00  0.1360348692D+02  0.9990999926D+00  0.1463359438D-01
 31  31  0.4997237674D+00  0.1359817503D+02  0.9995882708D+00  0.5434525251D-02
  L-O-C-K-I-N-G O-N R-O-O-T 
 32  32  0.4996942766D+00  0.1359737254D+02  0.9999685552D+00  0.2018001756D-02
 33  33  0.4996900037D+00  0.1359725627D+02  0.9999947859D+00  0.8483775395D-03
 34  34  0.4996902377D+00  0.1359726264D+02  0.9999990883D+00  0.4012685248D-03
 35  35  0.4996898499D+00  0.1359725209D+02  0.9999997866D+00  0.1967692705D-03
 36  36  0.4996898217D+00  0.1359725132D+02  0.9999999424D+00  0.8419521383D-04
 37  37  0.4996897614D+00  0.1359724968D+02  0.9999999919D+00  0.2961021305D-04
 38  38  0.4996897633D+00  0.1359724973D+02  0.9999999988D+00  0.1494974334D-04
 39  39  0.4996897659D+00  0.1359724980D+02  0.9999999999D+00  0.3623387256D-05
  Converged eigenvalue:   0.499689765930406       a.u.
   Total EOMEE-CC2 electronic energy     -112.650770508439450 a.u.
  Converged eigenvector 
  SCF eigenvalue ordering used in list below. 
--------------------------------------------------------------------------------
    I    j    A    b
--------------------------------------------------------------------------------
    5    0    8    0  -0.6309793706 AA  
    5    0   17    0   0.1898730891 AA  
    5    0   11    0  -0.1155343721 AA  
    5    0   14    0   0.0918401986 AA  
    5    5   15    8   0.0459076856 ABAB
    5    5    8   15   0.0459076856 ABAB
    5    5    9    8   0.0425277696 ABAB
    5    5    8    9   0.0425277696 ABAB
    7    0    9    0   0.0384648452 AA  
    5    6    8   16   0.0382284356 ABAB
    6    5   16    8   0.0382284356 ABAB
    5    0   26    0  -0.0380634940 AA  
    4    0   13    0  -0.0371827352 AA  
    7    0   15    0  -0.0359744882 AA  
    5    6    8   10   0.0349987615 ABAB
--------------------------------------------------------------------------------
  Converged eigenvector, normalized to one 
  SCF eigenvalue ordering used in list below. 
--------------------------------------------------------------------------------
    I    j    A    b
--------------------------------------------------------------------------------
    5    0    8    0  -0.6309793706 AA  
    5    0   17    0   0.1898730891 AA  
    5    0   11    0  -0.1155343721 AA  
    5    0   14    0   0.0918401986 AA  
    5    5   15    8   0.0459076856 ABAB
    5    5    8   15   0.0459076856 ABAB
    5    5    9    8   0.0425277696 ABAB
    5    5    8    9   0.0425277696 ABAB
    7    0    9    0   0.0384648452 AA  
    5    6    8   16   0.0382284356 ABAB
    6    5   16    8   0.0382284356 ABAB
    5    0   26    0  -0.0380634940 AA  
    4    0   13    0  -0.0371827352 AA  
    7    0   15    0  -0.0359744882 AA  
    5    6    8   10   0.0349987615 ABAB
--------------------------------------------------------------------------------

  Eigenvector is saved on CCRE_3_3  

  Adding new vector to expansion space.
  Guess for next eigenvalue   0.562629118316411     
 40  40  0.5130753349D+00  0.1396148965D+02  0.6272279269D+00  0.3750738986D-01
 41  41  0.5117076268D+00  0.1392427242D+02  0.9982697026D+00  0.1804656745D-01
 42  42  0.5114018208D+00  0.1391595102D+02  0.9995124822D+00  0.5584233992D-02
  L-O-C-K-I-N-G O-N R-O-O-T 
 43  43  0.5113587119D+00  0.1391477797D+02  0.9999701587D+00  0.1871277281D-02
 44  44  0.5113548297D+00  0.1391467232D+02  0.9999964256D+00  0.5637379694D-03
 45  45  0.5113557333D+00  0.1391469691D+02  0.9999997431D+00  0.1458109824D-03
 46  46  0.5113561619D+00  0.1391470857D+02  0.9999999832D+00  0.5219017237D-04
 47  47  0.5113560786D+00  0.1391470631D+02  0.9999999974D+00  0.1502402895D-04
 48  48  0.5113560579D+00  0.1391470575D+02  0.9999999997D+00  0.5144444710D-05
  Converged eigenvalue:   0.511356057923086       a.u.
   Total EOMEE-CC2 electronic energy     -112.639104216446782 a.u.
  Converged eigenvector 
  SCF eigenvalue ordering used in list below. 
--------------------------------------------------------------------------------
    I    j    A    b
--------------------------------------------------------------------------------
    4    0   13    0   0.4730050415 AA  
    4    0    9    0   0.3771242605 AA  
    4    0   15    0   0.1722452306 AA  
    7    0   13    0  -0.1556298365 AA  
    7    0   15    0   0.0809505910 AA  
    5    0   11    0  -0.0770383269 AA  
    4    0   24    0   0.0700658019 AA  
    4    0   22    0   0.0641443590 AA  
    7    0    9    0  -0.0485668570 AA  
    5    7   13   13  -0.0465552358 ABAB
    7    5   13   13  -0.0465552358 ABAB
    6    0   18    0   0.0456958396 AA  
    5    0   19    0  -0.0456958396 AA  
    5    4   13   13  -0.0394459978 ABAB
    4    5   13   13  -0.0394459978 ABAB
--------------------------------------------------------------------------------
  Converged eigenvector, normalized to one 
  SCF eigenvalue ordering used in list below. 
--------------------------------------------------------------------------------
    I    j    A    b
--------------------------------------------------------------------------------
    4    0   13    0   0.4730050415 AA  
    4    0    9    0   0.3771242605 AA  
    4    0   15    0   0.1722452306 AA  
    7    0   13    0  -0.1556298365 AA  
    7    0   15    0   0.0809505910 AA  
    5    0   11    0  -0.0770383269 AA  
    4    0   24    0   0.0700658019 AA  
    4    0   22    0   0.0641443590 AA  
    7    0    9    0  -0.0485668570 AA  
    5    7   13   13  -0.0465552358 ABAB
    7    5   13   13  -0.0465552358 ABAB
    6    0   18    0   0.0456958396 AA  
    5    0   19    0  -0.0456958396 AA  
    5    4   13   13  -0.0394459978 ABAB
    4    5   13   13  -0.0394459978 ABAB
--------------------------------------------------------------------------------

  Eigenvector is saved on CCRE_3_4  

  Solution of   4 roots required   48 iterations.
  @DOEOMEE-I, right-hand eigenvectors will be computed.
  Beginning symmetry block   4.   4 roots requested.
  @DOEOMEE-I, Matrix dimension for diagonalization:    42848
  Creating initial guess for root
________________________________________________________________________
            Subspace          Eigenvalue           
 Iteration  Dimension   (a.u.)         (eV)       Overlap      Residual
________________________________________________________________________
  @NEWGES-I, Using TDA initial guess.
  1   1  0.4998319202D+00  0.1360111802D+02  0.0000000000D+00  0.2183757269D+00
  2   2  0.3807592393D+00  0.1036098564D+02  0.9758078678D+00  0.5933496118D-01
  3   3  0.3789215525D+00  0.1031097964D+02  0.9985657912D+00  0.2092875898D-01
  4   4  0.3784753127D+00  0.1029883684D+02  0.9997174617D+00  0.1247181013D-01
  5   5  0.3784059186D+00  0.1029694853D+02  0.9999367588D+00  0.3033178997D-02
  L-O-C-K-I-N-G O-N R-O-O-T 
  6   6  0.3784020737D+00  0.1029684391D+02  0.9999868856D+00  0.1254509239D-02
  7   7  0.3784032417D+00  0.1029687569D+02  0.9999986737D+00  0.5584154956D-03
  8   8  0.3784037480D+00  0.1029688947D+02  0.9999997384D+00  0.1361666640D-03
  9   9  0.3784038726D+00  0.1029689286D+02  0.9999999868D+00  0.6709602106D-04
 10  10  0.3784038292D+00  0.1029689168D+02  0.9999999970D+00  0.1121865274D-04
 11  11  0.3784038645D+00  0.1029689264D+02  0.9999999999D+00  0.5441491851D-05
  Converged eigenvalue:   0.378403864530537       a.u.
   Total EOMEE-CC2 electronic energy     -112.772056409839323 a.u.
  Converged eigenvector 
  SCF eigenvalue ordering used in list below. 
--------------------------------------------------------------------------------
    I    j    A    b
--------------------------------------------------------------------------------
    5    0   12    0  -0.3831685964 AA  
    6    0   13    0   0.3831684986 AA  
    5    0   10    0  -0.2473530870 AA  
    6    0    9    0   0.2473530260 AA  
    5    0   16    0  -0.1335227490 AA  
    6    0   15    0   0.1335227180 AA  
    5    0   25    0  -0.0761984512 AA  
    6    0   24    0   0.0761984330 AA  
    5    0   21    0  -0.0659855252 AA  
    6    0   22    0   0.0659855104 AA  
    5    0   31    0  -0.0307347440 AA  
    6    0   30    0   0.0307347370 AA  
    5    5   13   12   0.0280415795 ABAB
    5    5   12   13   0.0280415795 ABAB
    5    6   12   12   0.0280415795 ABAB
--------------------------------------------------------------------------------
  Converged eigenvector, normalized to one 
  SCF eigenvalue ordering used in list below. 
--------------------------------------------------------------------------------
    I    j    A    b
--------------------------------------------------------------------------------
    5    0   12    0  -0.3831685964 AA  
    6    0   13    0   0.3831684986 AA  
    5    0   10    0  -0.2473530870 AA  
    6    0    9    0   0.2473530260 AA  
    5    0   16    0  -0.1335227490 AA  
    6    0   15    0   0.1335227180 AA  
    5    0   25    0  -0.0761984512 AA  
    6    0   24    0   0.0761984330 AA  
    5    0   21    0  -0.0659855252 AA  
    6    0   22    0   0.0659855104 AA  
    5    0   31    0  -0.0307347440 AA  
    6    0   30    0   0.0307347370 AA  
    5    5   13   12   0.0280415795 ABAB
    5    5   12   13   0.0280415795 ABAB
    5    6   12   12   0.0280415795 ABAB
--------------------------------------------------------------------------------

  Eigenvector is saved on CCRE_4_1  

  Adding new vector to expansion space.
  Guess for next eigenvalue   0.368225990307251     
 12  12  0.5175248779D+00  0.1408256787D+02  0.9999999731D+00  0.2346277240D+00
 13  13  0.3928638521D+00  0.1069036890D+02  0.9725735013D+00  0.7453583904D-01
 14  14  0.3904204787D+00  0.1062388133D+02  0.9980237200D+00  0.2457403076D-01
 15  15  0.3898297572D+00  0.1060780698D+02  0.9996131438D+00  0.1552805059D-01
 16  16  0.3897090928D+00  0.1060452354D+02  0.9998826598D+00  0.4174855057D-02
  L-O-C-K-I-N-G O-N R-O-O-T 
 17  17  0.3896976409D+00  0.1060421192D+02  0.9999743299D+00  0.1812453206D-02
 18  18  0.3896987133D+00  0.1060424110D+02  0.9999969323D+00  0.7876404896D-03
 19  19  0.3896995635D+00  0.1060426423D+02  0.9999995152D+00  0.1978292601D-03
 20  20  0.3896997202D+00  0.1060426850D+02  0.9999999706D+00  0.9196123960D-04
 21  21  0.3896996308D+00  0.1060426607D+02  0.9999999943D+00  0.1783322034D-04
 22  22  0.3896996799D+00  0.1060426740D+02  0.9999999997D+00  0.7565404089D-05
  Converged eigenvalue:   0.389699679860615       a.u.
   Total EOMEE-CC2 electronic energy     -112.760760594509250 a.u.
  Converged eigenvector 
  SCF eigenvalue ordering used in list below. 
--------------------------------------------------------------------------------
    I    j    A    b
--------------------------------------------------------------------------------
    6    0   13    0   0.3834226583 AA  
    5    0   12    0   0.3834226580 AA  
    5    0   10    0   0.2506361880 AA  
    6    0    9    0   0.2506361868 AA  
    6    0   15    0   0.1265994747 AA  
    5    0   16    0   0.1265994739 AA  
    6    0   24    0   0.0737834877 AA  
    5    0   25    0   0.0737834877 AA  
    5    0   21    0   0.0599530422 AA  
    6    0   22    0   0.0599530394 AA  
    5    5   13   12  -0.0315033026 ABAB
    5    5   12   13  -0.0315033026 ABAB
    6    6   13   12  -0.0315033023 ABAB
    6    6   12   13  -0.0315033023 ABAB
    5    6   12   12  -0.0310293289 ABAB
--------------------------------------------------------------------------------
  Converged eigenvector, normalized to one 
  SCF eigenvalue ordering used in list below. 
--------------------------------------------------------------------------------
    I    j    A    b
--------------------------------------------------------------------------------
    6    0   13    0   0.3834226583 AA  
    5    0   12    0   0.3834226580 AA  
    5    0   10    0   0.2506361880 AA  
    6    0    9    0   0.2506361868 AA  
    6    0   15    0   0.1265994747 AA  
    5    0   16    0   0.1265994739 AA  
    6    0   24    0   0.0737834877 AA  
    5    0   25    0   0.0737834877 AA  
    5    0   21    0   0.0599530422 AA  
    6    0   22    0   0.0599530394 AA  
    5    5   13   12  -0.0315033026 ABAB
    5    5   12   13  -0.0315033026 ABAB
    6    6   13   12  -0.0315033023 ABAB
    6    6   12   13  -0.0315033023 ABAB
    5    6   12   12  -0.0310293289 ABAB
--------------------------------------------------------------------------------

  Eigenvector is saved on CCRE_4_2  

  Adding new vector to expansion space.
  Guess for next eigenvalue   0.554746714952246     
 23  23  0.5376586672D+00  0.1463043613D+02  0.6991530980D+00  0.8055446744D-01
 24  24  0.5352055687D+00  0.1456368393D+02  0.9967129028D+00  0.3145392658D-01
 25  25  0.5349713037D+00  0.1455730925D+02  0.9997492997D+00  0.5547513886D-02
  L-O-C-K-I-N-G O-N R-O-O-T 
 26  26  0.5349487630D+00  0.1455669589D+02  0.9999846446D+00  0.2292195847D-02
 27  27  0.5349418138D+00  0.1455650679D+02  0.9999926892D+00  0.8959368418D-03
 28  28  0.5349429435D+00  0.1455653753D+02  0.9999981921D+00  0.5945659938D-03
 29  29  0.5349422750D+00  0.1455651934D+02  0.9999993567D+00  0.3280718341D-03
 30  30  0.5349421228D+00  0.1455651520D+02  0.9999995468D+00  0.1830493455D-03
 31  31  0.5349418417D+00  0.1455650755D+02  0.9999997829D+00  0.5710734683D-04
 32  32  0.5349418511D+00  0.1455650781D+02  0.9999999958D+00  0.1372022838D-04
 33  33  0.5349418458D+00  0.1455650766D+02  0.9999999998D+00  0.4722768460D-05
  Converged eigenvalue:   0.534941845791027       a.u.
   Total EOMEE-CC2 electronic energy     -112.615518428578838 a.u.
  Converged eigenvector 
  SCF eigenvalue ordering used in list below. 
--------------------------------------------------------------------------------
    I    j    A    b
--------------------------------------------------------------------------------
    5    0   10    0   0.3798307975 AA  
    6    0    9    0   0.3798301918 AA  
    5    0   12    0  -0.2611605074 AA  
    6    0   13    0  -0.2611600881 AA  
    7    0   18    0   0.0960136690 AA  
    5    0   16    0   0.0843055910 AA  
    6    0   15    0   0.0843054905 AA  
    5    0   25    0  -0.0824305559 AA  
    6    0   24    0  -0.0824304733 AA  
    5    5    9   10  -0.0297913555 ABAB
    5    5   10    9  -0.0297913555 ABAB
    6    6    9   10  -0.0297913131 ABAB
    6    6   10    9  -0.0297913131 ABAB
    5    5   15   10  -0.0289833034 ABAB
    5    5   10   15  -0.0289833034 ABAB
--------------------------------------------------------------------------------
  Converged eigenvector, normalized to one 
  SCF eigenvalue ordering used in list below. 
--------------------------------------------------------------------------------
    I    j    A    b
--------------------------------------------------------------------------------
    5    0   10    0   0.3798307975 AA  
    6    0    9    0   0.3798301918 AA  
    5    0   12    0  -0.2611605074 AA  
    6    0   13    0  -0.2611600881 AA  
    7    0   18    0   0.0960136690 AA  
    5    0   16    0   0.0843055910 AA  
    6    0   15    0   0.0843054905 AA  
    5    0   25    0  -0.0824305559 AA  
    6    0   24    0  -0.0824304733 AA  
    5    5    9   10  -0.0297913555 ABAB
    5    5   10    9  -0.0297913555 ABAB
    6    6    9   10  -0.0297913131 ABAB
    6    6   10    9  -0.0297913131 ABAB
    5    5   15   10  -0.0289833034 ABAB
    5    5   10   15  -0.0289833034 ABAB
--------------------------------------------------------------------------------

  Eigenvector is saved on CCRE_4_3  

  Adding new vector to expansion space.
  Guess for next eigenvalue   0.558131642208039     
 34  34  0.5411893005D+00  0.1472650955D+02  0.6907676401D+00  0.9014013615D-01
 35  35  0.5383632130D+00  0.1464960780D+02  0.9960610625D+00  0.8783733654D-02
 36  36  0.5382877589D+00  0.1464755459D+02  0.9999629184D+00  0.1676564752D-02
  L-O-C-K-I-N-G O-N R-O-O-T 
 37  37  0.5382810296D+00  0.1464737147D+02  0.9999985221D+00  0.3404623941D-03
 38  38  0.5382810802D+00  0.1464737285D+02  0.9999999220D+00  0.6934262671D-04
 39  39  0.5382810870D+00  0.1464737304D+02  0.9999999973D+00  0.1292654832D-04
 40  40  0.5382810852D+00  0.1464737299D+02  0.9999999999D+00  0.3356573373D-05
  Converged eigenvalue:   0.538281085203868       a.u.
   Total EOMEE-CC2 electronic energy     -112.612179189166000 a.u.
  Converged eigenvector 
  SCF eigenvalue ordering used in list below. 
--------------------------------------------------------------------------------
    I    j    A    b
--------------------------------------------------------------------------------
    5    0   10    0  -0.3866227167 AA  
    6    0    9    0   0.3866227086 AA  
    6    0   13    0  -0.2624076922 AA  
    5    0   12    0   0.2624076865 AA  
    5    0   25    0   0.0801097181 AA  
    6    0   24    0  -0.0801096978 AA  
    6    0   15    0   0.0781273590 AA  
    5    0   16    0  -0.0781273279 AA  
    6    6    9   16  -0.0289757404 ABAB
    6    6   16    9  -0.0289757404 ABAB
    5    5   15   10   0.0289757404 ABAB
    5    5   10   15   0.0289757404 ABAB
    5    5    9   10   0.0269010316 ABAB
    5    5   10    9   0.0269010316 ABAB
    5    6   10   10   0.0269010316 ABAB
--------------------------------------------------------------------------------
  Converged eigenvector, normalized to one 
  SCF eigenvalue ordering used in list below. 
--------------------------------------------------------------------------------
    I    j    A    b
--------------------------------------------------------------------------------
    5    0   10    0  -0.3866227167 AA  
    6    0    9    0   0.3866227086 AA  
    6    0   13    0  -0.2624076922 AA  
    5    0   12    0   0.2624076865 AA  
    5    0   25    0   0.0801097181 AA  
    6    0   24    0  -0.0801096978 AA  
    6    0   15    0   0.0781273590 AA  
    5    0   16    0  -0.0781273279 AA  
    6    6    9   16  -0.0289757404 ABAB
    6    6   16    9  -0.0289757404 ABAB
    5    5   15   10   0.0289757404 ABAB
    5    5   10   15   0.0289757404 ABAB
    5    5    9   10   0.0269010316 ABAB
    5    5   10    9   0.0269010316 ABAB
    5    6   10   10   0.0269010316 ABAB
--------------------------------------------------------------------------------

  Eigenvector is saved on CCRE_4_4  

  Solution of   4 roots required   40 iterations.
 @CHECKOUT-I, Total execution time (CPU/WALL):      283.49/      14.30 seconds.
--executable xvee finished with status     0 in       14.85 seconds (walltime).
  The final electronic energy is      -112.612179189166000 a.u. 
  This computation required                           26.93 seconds (walltime).
