 --invoking executable--
/home/CEISAM/blondel-a/soft/cfour2.1/cfour2.1-serial-mkl/bin/xjoda


   *************************************************************************
         <<<     CCCCCC     CCCCCC   |||     CCCCCC     CCCCCC   >>>
       <<<      CCC        CCC       |||    CCC        CCC         >>>
      <<<      CCC        CCC        |||   CCC        CCC            >>>
    <<<        CCC        CCC        |||   CCC        CCC              >>>
      <<<      CCC        CCC        |||   CCC        CCC            >>>
       <<<      CCC        CCC       |||    CCC        CCC         >>>
         <<<     CCCCCC     CCCCCC   |||     CCCCCC     CCCCCC   >>>
   *************************************************************************

     ****************************************************************
     * CFOUR Coupled-Cluster techniques for Computational Chemistry *
     ****************************************************************
 

   Department of Chemistry                Institut fuer Physikalische Chemie
   University of Florida                  Universitaet Mainz
   Gainesville, FL 32611, USA             D-55099 Mainz, Germany

   Department of Chemistry                Fakultaet fuer Chemie und Biowiss.
   Johns Hopkins University               Karlsruher Institut fuer Technologie
   Baltimore, MD 21218, USA               D-76131 Karlsruhe, Germany

   Department of Chemistry                Department of Physical Chemistry
   Southern Methodist University          Eotvos Lorand University
   Dallas, TX 75275, USA                  H-1053 Budapest, Hungary

 
                       Version 2.1
 
                     cribbar041                                        
                     Mon May  3 08:07:31 CEST 2021                     
                     integer*8 version is running
 
********************************************************************************
*                          Input from ZMAT file                                *
********************************************************************************
Ketene -GS                                                                      
S    0.0000000000            0.0000000000           -0.5036508625               
H    0.0000000000            1.8182810536            1.2521228828               
H    0.0000000000           -1.8182810536            1.2521228828               
                                                                                
*CFOUR(COORD=CARTESIAN,UNITS=BOHR                                               
       MEMORY=250,MEM_UNIT=GB,CC_PROG=ECC                                       
       FROZEN_CORE=1                                                            
       CALC=CC2,BASIS=AUG-PVTZ                                                  
       SCF_CONV=8,CC_CONV=7,ESTATE_CONV=5,ESTATE_MAXCYC=120                     
       EXCITE=EOMEE,ESTATE_SYM=0/1/0/1)                                         
                                                                                
********************************************************************************
    -------------------------------------------------------------------
                    CFOUR Control Parameters 
    -------------------------------------------------------------------
        External           Internal           Value            Units
          Name               Name
    -------------------------------------------------------------------
       ABCDTYPE             IABCDT         STANDARD    [  0]    ***   
       ANHARMONIC           IANHAR         OFF         [  0]    ***   
       ANH_ALGORIT          IANALG         STANDARD    [  0]    ***   
       ANH_DERIVAT          IANDER         SECOND      [  1]    ***   
       ANH_MODE             ANHMOD         VIBRATION   [  0]    ***   
       ANH_STEPSIZ          ICUBST             50000          x 10-6  
       ANH_SYMMETR          IANHSM         ABELIAN     [  0]    ***   
       AO_LADDERS           IAOLAD         SINGLEPASS  [  1]    ***   
       AV_SCF               IAVSCF         OFF         [  0]    ***   
       BASIS                IBASIS         AUG-PVTZ    [ 34]    ***   
       BOTHVECTORS          BOTHVC         OFF         [  0]    ***   
       BOX_POTENT           IPIAB          OFF         [  0]    ***   
       BREIT                IBREIT         OFF         [  0]    ***   
       BRUCK_CONV           IBRTOL          10D-  4             ***   
       BRUECKNER            IBRKNR         OFF         [  0]    ***   
       BUFFERSIZE           IBUFFS              4096            ***   
       CACHE_RECS           ICHREC             10               ***   
       CALCLEVEL            ICLLVL         CC2         [ 31]    ***   
       CCORBOPT             ICCORB         OFF         [  0]  x 0.01  
       CC_CONV              ICCCNV          10D-  7             ***   
       CC_EXPORDER          ICCEOR              5               ***   
       CC_EXTRAPOL          ICCEXT         DIIS        [  1]    ***   
       CC_GUESS             ICCGES         MP2         [  0]    ***   
       CC_MAXCYC            ICCCYC            100              cycles 
       CC_PROGRAM           ICCPRO         VCC         [  0]    ***   
       CHARGE               ICHRGE              0               ***   
       CHOLESKY             ICHOLE         OFF         [  0]    ***   
       CIS_CONV             ICISTL              5               ***   
       COMM_SIZE            IPSIZE            ***               ***   
       CONSTANT             ICONST         OLD         [  1]    ***   
       CONTINUUM            ICONTU         NONE        [  0]    ***   
       CONTRACTION          ICNTYP         GENERAL     [  1]    ***   
       COORDINATES          ICOORD         CARTESIAN   [  1]    ***   
       CPHF_CONVER          ICPHFT          10D- 16             ***   
       CPHF_MAXCYC          ICPHFC             64              cycles 
       CUBIC                ICUBIC         OFF         [  0]    ***   
       CURVILINEAR          ICURVY         OFF         [  0]    ***   
       DBOC                 IDBOC          OFF         [  0]    ***   
       DCT                  IDCT           OFF         [  0]    ***   
       DERIV_LEV            IDRLVL         ZERO        [  0]    ***   
       DEVMEM_SIZE          IDVMEM         *********           MByte  
       DIAG_MRCC            IEOMST          10D-  0             ***   
       DIFF_TYPE            IDIFTY         RELAXED     [  0]    ***   
       DIRECT               IDIRCT         OFF         [  0]    ***   
       DROPMO               IDRPMO      NONE         
       ECP                  IECP           OFF         [  0]    ***   
       EIGENVECTOR          IVEC                1               ***   
       EL_ANHARM            IELANH         OFF         [  0]    ***   
       EOMFOLLOW            IEOMSR         ENERGY      [  0]    ***   
       EOMIP                IEOMIP         OFF         [  0]    ***   
       EOMLEVEL             HBARFM         SAME        [  0]    ***   
       EOM_MRCC             IMRCCE         NEW         [  1]    ***   
       EOM_NONIT            EOMNON         OFF         [  0]    ***   
       EOM_NSING            IEOMSI          10D-  0             ***   
       EOM_NSTATES          IMRCCD         DAVIDSON    [  0]    ***   
       EOM_NTRIP            IEOMTR          10D-  0             ***   
       EOM_ORDER            IEXORD         ENERGY      [  0]    ***   
       EOM_PROPSTA          IEOMST              0               ***   
       ESTATE_CONV          IEXTOL          10D-  5             ***   
       ESTATE_DIAG          IEXDIG         ITERATIVE   [  0]    ***   
       ESTATE_LOCK          IESLOC         ON          [  1]    ***   
       ESTATE_MAXC          IEXMXC            120               ***   
       ESTATE_PROP          IEXPRP         OFF         [  0]    ***   
       ESTATE_SYM           IEXSYM   0,  1,  0,  1,
       EVAL_HESS            IRECAL              0            # of cyc.
       EXCITATION           IEXCIT              0               ***   
       EXCITE               IEXCIT         EOMEE       [  3]    ***   
       EXTERN_POT           IEXPOT         OFF         [  0]    ***   
       FCGRADNEW            IFCGNW         OFF         [  0]    ***   
       FC_FIELD             IFINFC              0             x 10-6  
       FD_CALTYPE           IFDCAL         GRADONLY    [  0]    ***   
       FD_PROJECT           IFDPRJ         OFF         [  1]    ***   
       FD_STEPSIZE          IDISFD              0            10-4 bohr
       FD_USEGROUP          IFDGRP         FULL        [  0]    ***   
       FILE_RECSIZ          IFLREC              4096           words  
       FINITE_PERT          IFIPER              0             x 10-6  
       FIXGEOM              IFIXGM         OFF         [  0]    ***   
       FOCK                 IFOCK          AO          [  1]    ***   
       FREQ_ALGORI          IVIALG         STANDARD    [  0]    ***   
       FROZEN_CORE          IFROCO         ON          [  1]    ***   
       GAMMA_ABCD           IGABCD         STORE       [  0]    ***   
       GAMMA_ABCI           IGABCI         STORE       [  0]    ***   
       GENBAS_1             IGNBS1              0               ***   
       GENBAS_2             IGNBS2              0               ***   
       GENBAS_3             IGNBS3              0               ***   
       GENBAS_4             IGNBS4              0               ***   
       GEO_CONV             ICONTL              5              H/bohr 
       GEO_MAXCYC           IOPTCY             50               ***   
       GEO_MAXSTEP          IMXSTP            300            millibohr
       GEO_METHOD           INR            SINGLE_POINT[  5]    ***   
       GIAO                 IGIAO          OFF         [  1]    ***   
       GIMIC                IGIMIC         OFF         [  0]    ***   
       GRID                 IGRID          OFF         [  0]    ***   
       GRID_ALGO            IGALGO         SERIAL      [  0]    ***   
       GUESS                IGUESS         MOREAD      [  0]    ***   
       HBAR                 IHBAR          ON          [  1]    ***   
       HESS_TYPE            IHESTP         SCF         [  0]    ***   
       HF2_FILE             IHF2Fl         USE         [  1]    ***   
       HFSTABILITY          ISTABL         OFF         [  0]    ***   
       INCORE               INCORE         OFF         [  0]    ***   
       INPUT_MRCC           IMRCC          ON          [  1]    ***   
       INTEGRALS            INTTYP         VMOL        [  1]    ***   
       JODA_PRINT           IJPRNT              0               ***   
       KEYWORD_OUT          IDMPKW         NO          [  0]    ***   
       LINDEP_TOL           ILINDP              8               ***   
       LINEQ_CONV           IZTACN          10D-  7           cycles  
       LINEQ_EXPOR          ILMAXD              5               ***   
       LINEQ_MAXCY          ILMAXC            100               ***   
       LINEQ_TYPE           ILTYPE         DIIS        [  1]    ***   
       LOCK_ORBOCC          ILOCOC         OFF         [  0]    ***   
       MEMORY_SIZE          IMEMSZ         *********           words  
       MEM_UNIT             IMEMU          GB          [  3]    ***   
       MRCC                 IMRCCC         OFF         [  0]    ***   
       MULTIPLICTY          IMULTP              1               ***   
       NACOUPLING           IVCOUP         OFF         [  0]    ***   
       NEGEVAL              IDIE           ABORT       [  0]    ***   
       NEWNORM              INEWNO         OFF         [  0]    ***   
       NON-HF               INONHF         OFF         [  0]    ***   
       NTOP_TAMP            ITOPT2             15               ***   
       NUC_MODEL            INUCMO         POINT       [  0]    ***   
       OCCUPATION           IOCCU   ESTIMATED BY SCF 
       OPEN-SHELL           IOPEN          SPIN-ORBITAL[  0]    ***   
       OPTVIB               IOPTVB         OFF         [  0]    ***   
       ORBITALS             IORBTP         STANDARD    [  0]    ***   
       PARALLEL             IPARAL         ON          [  1]    ***   
       PARA_INT             IPINTS         ON          [  1]    ***   
       PARA_PRINT           IPPRIN              0               ***   
       PERT_ORB             IPTORB         STANDARD    [  0]    ***   
       POINTS               IGRDFD              0               ***   
       PRINT                IPRNT               0               ***   
       PROPS                IPROPS         OFF         [  0]    ***   
       PROP_INTEGR          IINTYP         INTERNAL    [  0]    ***   
       PSI                  IPSI           OFF         [  0]    ***   
       QC_ALG               IQCALG         FLM         [  0]    ***   
       QC_LINALG            IQCLIN         TRIDIAG     [  2]    ***   
       QC_MAXCYC            IQCMAX          10D-100           cycles  
       QC_MAXSCFCY          IQCMSC          10D- 15           cycles  
       QC_RTRUST            IQCRTR          10D-  0           x 10-3  
       QC_SKIPSCF           IQCSKI         OFF         [  0]    ***   
       QC_START             IQCSTA          10D-  1             ***   
       QRHFGUESS            IQGUES         OFF         [  0]    ***   
       QUARTIC              IQUART         OFF         [  0]    ***   
       RAMAN_INT            IRAMIN         OFF         [  0]    ***   
       RAMAN_ORB            IRAMRE         UNRELAXED   [  0]    ***   
       RDO                  IRDOFM         OFF         [  0]    ***   
       REDUCE_REPR          REDREP         Ir          [  0]    ***   
       REFERENCE            IREFNC         RHF         [  0]    ***   
       RELATIVIST           IRELAT         OFF         [  0]    ***   
       RELAX_DENS           IRDENS         OFF         [  0]    ***   
       RESET_FLAGS          IRESET         OFF         [  0]    ***   
       RESTART_CC           ICCRES         OFF         [  0]    ***   
       ROT_EVEC             ROTVEC              0               ***   
       SAVE_INTS            ISVINT         OFF         [  0]    ***   
       SCALE_ON             ISTCRT              0               ***   
       SCF_CONV             ISCFCV          10D-  8             ***   
       SCF_DAMPING          IDAMP               0             x 10-3  
       SCF_EXPORDE          IRPPOR              6               ***   
       SCF_EXPSTAR          IRPPLS              8               ***   
       SCF_EXTRAPO          IRPP           ON          [  1]    ***   
       SCF_MAXCYC           ISCFCY            150              cycles 
       SCF_NOSTOP           ISCFST         OFF         [  0]    ***   
       SCF_PRINT            ISCFPR              0               ***   
       SCF_PROG             ISCFPR         SCF         [  0]    ***   
       SD_FIELD             IFINSD              0             x 10-6  
       SOPERT               IPERSO         OFF         [  0]    ***   
       SPHERICAL            IDFGHI         ON          [  1]    ***   
       SPINORBIT            ISOCAL         OFF         [  0]    ***   
       SPINROTATIO          ISRCON         OFF         [  0]    ***   
       SPIN_FLIP            ISPFLP         OFF         [  0]    ***   
       SPIN_ORBIT           ISPORB         OFF         [  0]    ***   
       SPIN_SCAL            ISCSMP         OFF         [  0]    ***   
       STEEPSCALE           ISTPSC              1000          x 10-3  
       SUBGROUP             ISUBGP         DEFAULT     [  0]    ***   
       SUBGRPAXIS           ISBXYZ         X           [  0]    ***   
       SYMMETRY             ISYM           ON          [  0]    ***   
       SYM_CHECK            ISYMCK         OVERRIDE    [  1]    ***   
       T3_EXTRAPOL          IT3EXT         OFF         [  0]    ***   
       T4_EXTRAPOL          IT4EXP         OFF         [  0]    ***   
       TAMP_SUM             IEVERY              5               ***   
       TESTSUITE            ITESTS         OFF         [  0]    ***   
       THERMOCH             ITHERM         OFF         [  0]    ***   
       TOL_CHOLESK          ITOLCH          10D-  4             ***   
       TRANGRAD             IRESRM         OFF         [  0]    ***   
       TRANS_INV            ITRAIN         USE         [  0]    ***   
       TREAT_PERT           ITREAT         SIMULTANEOUS[  0]    ***   
       TRIP_ALGORI          ITRALG         NORMAL      [  0]    ***   
       UIJ_THRESHO          IUIJTH              1               ***   
       UNITS                IUNITS         BOHR        [  1]    ***   
       UNOS                 IUNOS          OFF         [  0]    ***   
       UPDATE_HESS          IHUPDT         ON          [  1]    ***   
       VIBPHASE             ISETPH         STANDARD    [  0]    ***   
       VIBRATION            IVIB           NO          [  0]    ***   
       VIB_ALGORIT          IGEALG         STANDARD    [  0]    ***   
       VNATORB              IVNORB         OFF         [  0]    ***   
       VTRAN                IVTRAN         FULL/PARTIAL[  0]    ***   
       XFIELD               IXEFLD              0             x 10-6  
       XFORM_TOL            IXFTOL          10D- 11             ***   
       YFIELD               IYEFLD              0             x 10-6  
       ZFIELD               IZEFLD              0             x 10-6  
       ZSCALE_EXP           IZEXPS         OFF         [  0]    ***   
    -------------------------------------------------------------------
  @GETXYZ-I,     3 atoms read from ZMAT.
   Rotational constants (in cm-1): 
          4.8124145846             9.0335261580            10.2989632655
   Rotational constants (in MHz): 
     144272.5799367765        270818.3390724506        308755.1944770041
********************************************************************************
   The full molecular point group is C2v .
   The largest Abelian subgroup of the full molecular point group is C2v .
   The computational point group is C2v .
********************************************************************************


 ----------------------------------------------------------------
         Coordinates used in calculation (QCOMP) 
 ----------------------------------------------------------------
 Z-matrix   Atomic            Coordinates (in bohr)
  Symbol    Number           X              Y              Z
 ----------------------------------------------------------------
     S        16         0.00000000     0.00000000    -0.10412659
     H         1         0.00000000     1.81828105     1.65164716
     H         1         0.00000000    -1.81828105     1.65164716
 ----------------------------------------------------------------
 
   Interatomic distance matrix (Angstroms) 
 
                 S             H             H    
                [ 1]        [ 2]        [ 3]
  S    [ 1]     0.00000
  H    [ 2]     1.33756     0.00000
  H    [ 3]     1.33756     1.92439     0.00000
 rotcon2
   Rotational constants (in cm-1): 
          4.8124145846            10.2989632655             9.0335261580
   Rotational constants (in MHz): 
     144272.5799367765        308755.1944770041        270818.3390724506
  There are   5 frozen-core orbitals.
  There are   96 basis functions.
 @GEOPT-W, Archive file not created for single-point calculation.
 @CHECKOUT-I, Total execution time (CPU/WALL):        0.19/       1.53 seconds.
--executable xjoda finished with status     0 in        2.11 seconds (walltime).
 --invoking executable--
/home/CEISAM/blondel-a/soft/cfour2.1/cfour2.1-serial-mkl/bin/xvmol
 SERIAL VERSION OF MOLECULE STARTED
********************************************************************************
                    INPUT FROM MOL FILE
********************************************************************************
INTGRL        1    0    1    0    0    0    0    0    0                         
         *** CFOUR Program System (Release V0.1) ***                            
Ketene -GS                                                                      
    2    2 X  Y       0.10E-08              0    0                              
   9999.00      3.00                                                            
         16.00000000    1    4    1    1    1    1                              
S #1   0.000000000000000   0.000000000000000  -0.104126590204952                
   16    6                                                                      
   374100.000000000       5.420000000000000E-005 -1.500000000000000E-005        
  4.400000000000000E-006  0.000000000000000E+000  0.000000000000000E+000        
  0.000000000000000E+000                                                        
   56050.0000000000       4.209000000000000E-004 -1.162000000000000E-004        
  3.370000000000000E-005  0.000000000000000E+000  0.000000000000000E+000        
  0.000000000000000E+000                                                        
   12760.0000000000       2.207000000000000E-003 -6.116000000000000E-004        
  1.777000000000000E-004  0.000000000000000E+000  0.000000000000000E+000        
  0.000000000000000E+000                                                        
   3615.00000000000       9.192600000000000E-003 -2.553700000000000E-003        
  7.411000000000000E-004  0.000000000000000E+000  0.000000000000000E+000        
  0.000000000000000E+000                                                        
   1183.00000000000       3.211230000000000E-002 -9.087100000000001E-003        
  2.645900000000000E-003  0.000000000000000E+000  0.000000000000000E+000        
  0.000000000000000E+000                                                        
   428.800000000000       9.466830000000000E-002 -2.770450000000000E-002        
  8.074899999999999E-003  0.000000000000000E+000  0.000000000000000E+000        
  0.000000000000000E+000                                                        
   167.800000000000       0.223630000000000      -7.200200000000000E-002        
  2.122760000000000E-002  0.000000000000000E+000  0.000000000000000E+000        
  0.000000000000000E+000                                                        
   69.4700000000000       0.374393000000000      -0.146439000000000             
  4.383230000000000E-002  0.000000000000000E+000  0.000000000000000E+000        
  0.000000000000000E+000                                                        
   29.8400000000000       0.329108000000000      -0.195150000000000             
  6.127160000000000E-002  0.000000000000000E+000  0.000000000000000E+000        
  0.000000000000000E+000                                                        
   12.7200000000000       8.470380000000000E-002  8.191900000000000E-003        
 -3.615100000000000E-003  0.000000000000000E+000  0.000000000000000E+000        
  0.000000000000000E+000                                                        
   5.24400000000000       4.409000000000000E-004  0.516601000000000             
 -0.204510000000000       0.000000000000000E+000  0.000000000000000E+000        
  0.000000000000000E+000                                                        
   2.21900000000000       1.648300000000000E-003  0.542178000000000             
 -0.381871000000000       0.000000000000000E+000  0.000000000000000E+000        
  0.000000000000000E+000                                                        
  0.776700000000000      -6.223000000000000E-004  6.884300000000000E-002        
  8.268440000000001E-002   1.00000000000000       0.000000000000000E+000        
  0.000000000000000E+000                                                        
  0.349000000000000       3.013000000000000E-004 -9.180700000000000E-003        
  0.714147000000000       0.000000000000000E+000  0.000000000000000E+000        
  0.000000000000000E+000                                                        
  0.132200000000000      -8.410000000000000E-005  2.268300000000000E-003        
  0.393791000000000       0.000000000000000E+000   1.00000000000000             
  0.000000000000000E+000                                                        
  4.970000000000000E-002  0.000000000000000E+000  0.000000000000000E+000        
  0.000000000000000E+000  0.000000000000000E+000  0.000000000000000E+000        
   1.00000000000000                                                             
   10    5                                                                      
   574.400000000000       2.422600000000000E-003 -6.200999999999999E-004        
  0.000000000000000E+000  0.000000000000000E+000  0.000000000000000E+000        
   135.800000000000       1.927960000000000E-002 -4.938800000000000E-003        
  0.000000000000000E+000  0.000000000000000E+000  0.000000000000000E+000        
   43.1900000000000       8.854010000000000E-002 -2.326470000000000E-002        
  0.000000000000000E+000  0.000000000000000E+000  0.000000000000000E+000        
   15.8700000000000       0.254654000000000      -6.851950000000000E-002        
  0.000000000000000E+000  0.000000000000000E+000  0.000000000000000E+000        
   6.20800000000000       0.433984000000000      -0.123896000000000             
  0.000000000000000E+000  0.000000000000000E+000  0.000000000000000E+000        
   2.48300000000000       0.354953000000000      -9.694990000000001E-002        
  0.000000000000000E+000  0.000000000000000E+000  0.000000000000000E+000        
  0.868800000000000       6.189410000000000E-002  0.228215000000000             
   1.00000000000000       0.000000000000000E+000  0.000000000000000E+000        
  0.322900000000000      -5.029800000000000E-003  0.569394000000000             
  0.000000000000000E+000  0.000000000000000E+000  0.000000000000000E+000        
  0.109800000000000       2.098100000000000E-003  0.366302000000000             
  0.000000000000000E+000   1.00000000000000       0.000000000000000E+000        
  3.510000000000000E-002  0.000000000000000E+000  0.000000000000000E+000        
  0.000000000000000E+000  0.000000000000000E+000   1.00000000000000             
    3    3                                                                      
  0.269000000000000        1.00000000000000       0.000000000000000E+000        
  0.000000000000000E+000                                                        
  0.819000000000000       0.000000000000000E+000   1.00000000000000             
  0.000000000000000E+000                                                        
  0.101000000000000       0.000000000000000E+000  0.000000000000000E+000        
   1.00000000000000                                                             
    2    2                                                                      
  0.557000000000000        1.00000000000000       0.000000000000000E+000        
  0.218000000000000       0.000000000000000E+000   1.00000000000000             
          1.00000000    1    3    1    1    1                                   
H #2   0.000000000000000   1.818281053600000   1.651647155095048                
    6    4                                                                      
   33.8700000000000       6.068000000000000E-003  0.000000000000000E+000        
  0.000000000000000E+000  0.000000000000000E+000                                
   5.09500000000000       4.530800000000000E-002  0.000000000000000E+000        
  0.000000000000000E+000  0.000000000000000E+000                                
   1.15900000000000       0.202822000000000       0.000000000000000E+000        
  0.000000000000000E+000  0.000000000000000E+000                                
  0.325800000000000       0.503903000000000        1.00000000000000             
  0.000000000000000E+000  0.000000000000000E+000                                
  0.102700000000000       0.383421000000000       0.000000000000000E+000        
   1.00000000000000       0.000000000000000E+000                                
  2.526000000000000E-002  0.000000000000000E+000  0.000000000000000E+000        
  0.000000000000000E+000   1.00000000000000                                     
    3    3                                                                      
   1.40700000000000        1.00000000000000       0.000000000000000E+000        
  0.000000000000000E+000                                                        
  0.388000000000000       0.000000000000000E+000   1.00000000000000             
  0.000000000000000E+000                                                        
  0.102000000000000       0.000000000000000E+000  0.000000000000000E+000        
   1.00000000000000                                                             
    2    2                                                                      
   1.05700000000000        1.00000000000000       0.000000000000000E+000        
  0.247000000000000       0.000000000000000E+000   1.00000000000000             
FINISH                                                                          
 
********************************************************************************
 ONE- AND TWO-ELECTRON INTEGRALS OVER SYMMETRY-ADAPTED AOS ARE CALCULATED.

  SPHERICAL HARMONICS ARE USED.
  
  INTEGRALS LESS THAN  0.10E-13 ARE NEGLECTED.

  NUCLEAR REPULSION ENERGY :   12.9350915216 A.U.
  @MOLECU-I, ONE ELECTRON INTEGRALS (CPU/WALL):        0.04/       0.07 SECONDS.
  @TWOEL-I,     318692 INTEGRALS OF SYMMETRY TYPE  I I I I
  @TWOEL-I,    1030403 INTEGRALS OF SYMMETRY TYPE  I J I J
  @TWOEL-I,     553516 INTEGRALS OF SYMMETRY TYPE  I I J J
  @TWOEL-I,     665794 INTEGRALS OF SYMMETRY TYPE  I J K L
  @TWOEL-I, TOTAL NUMBER OF 2-E INTEGRALS    2568405.
  @MOLECU-I, TWO ELECTRON INTEGRALS (CPU/WALL):       24.26/       1.35 SECONDS.
 @CHECKOUT-I, Total execution time (CPU/WALL):       24.32/       1.46 seconds.

Running with 20 threads/proc

--executable xvmol finished with status     0 in        2.02 seconds (walltime).
 --invoking executable--
/home/CEISAM/blondel-a/soft/cfour2.1/cfour2.1-serial-mkl/bin/xvmol2ja
 @GETMEM-I,  Allocated  238418 MB of main memory.
 @CHECKOUT-I, Total execution time (CPU/WALL):        0.19/       0.07 seconds.
--executable xvmol2ja finished with status     0 in        0.62 seconds (walltime).
 --invoking executable--
/home/CEISAM/blondel-a/soft/cfour2.1/cfour2.1-serial-mkl/bin/xvscf
  There are   96 functions in the AO basis.

  There are 4 irreducible representations.

       Irrep        # of functions
         1                 37
         2                 19
         3                 28
         4                 12


  Parameters for SCF calculation: 
        SCF reference function:  RHF  
  Maximum number of iterations:  150
     Full symmetry point group: C2v 
     Computational point group: C2v 
        Initial density matrix: MOREAD                 
     SCF convergence tolerance: 10**(- 8)
  DIIS convergence acceleration:  ON
          Latest start for DIIS:   8
                     DIIS order:   6

  Memory information:     429704 words required.
  Fock matrices are constructed from AO integral file.
 @GETMEM-I,  Allocated       3 MB of main memory.
  Initialization and symmetry analysis required      0.003 seconds.

  @INITGES-I, Occupancies from core Hamiltonian:

          Alpha population by irrep:   5    2    2    0
           Beta population by irrep:   5    2    2    0


 total no. of electrons in initial guess :  0.000000000000000E+000
  --------------------------------------------------------------------
  Iteration         Total Energy            Largest Density Difference
  --------------------------------------------------------------------
       0            12.935091521591783              0.0000000000D+00
   current occupation vector 
     5  2  2  0
     5  2  2  0
       1          -380.683889834529793              0.2480161411D+02
   current occupation vector 
     5  2  2  0
     5  2  2  0
       2          -390.621312313235876              0.4240020806D+02
   current occupation vector 
     5  1  3  0
     5  1  3  0
       3          -396.263366431112729              0.4239982551D+02
   current occupation vector 
     5  2  2  0
     5  2  2  0
       4          -396.829433590114377              0.1693897460D+02
   current occupation vector 
     6  1  2  0
     6  1  2  0
       5          -398.186510054048995              0.1694194454D+02
   current occupation vector 
     5  2  2  0
     5  2  2  0
       6          -398.642310453584798              0.1193966953D+01
   current occupation vector 
     5  2  2  0
     5  2  2  0
       7          -398.705194595660942              0.3305409176D+00
   current occupation vector 
     5  2  2  0
     5  2  2  0
       8          -398.713756411239842              0.8758949857D-01
   current occupation vector 
     5  2  2  0
     5  2  2  0
       9          -398.713821052382855              0.9377352965D-02
   current occupation vector 
     5  2  2  0
     5  2  2  0
      10          -398.713824739605911              0.3285476255D-02
   current occupation vector 
     5  2  2  0
     5  2  2  0
      11          -398.713824997185782              0.7919530493D-03
   current occupation vector 
     5  2  2  0
     5  2  2  0
      12          -398.713825005116632              0.9472793355D-04
   current occupation vector 
     5  2  2  0
     5  2  2  0
      13          -398.713825005330932              0.1685582132D-04
   current occupation vector 
     5  2  2  0
     5  2  2  0
      14          -398.713825005335934              0.2502254941D-05
   current occupation vector 
     5  2  2  0
     5  2  2  0
      15          -398.713825005334854              0.3316936248D-06
   current occupation vector 
     5  2  2  0
     5  2  2  0
      16          -398.713825005337128              0.1166425734D-06
   current occupation vector 
     5  2  2  0
     5  2  2  0
      17          -398.713825005337924              0.3281565686D-07
   current occupation vector 
     5  2  2  0
     5  2  2  0

  SCF has converged.

 Density matrix saved to file den.dat
 total electron number:   18.0000000000000     
     E(SCF)=      -398.713825005337299              0.3924183423D-08

  Eigenvector printing suppressed.

 @PUTMOS-I, Writing converged MOs to NEWMOS. 
 @PUTMOS-I, Symmetry   1 Full Blocks  9 Partial Blocksize   1
 @PUTMOS-I, Symmetry   2 Full Blocks  4 Partial Blocksize   3
 @PUTMOS-I, Symmetry   3 Full Blocks  7 Partial Blocksize   0
 @PUTMOS-I, Symmetry   4 Full Blocks  3 Partial Blocksize   0
 @PUTFOCK-I, Writing converged Fock matrix to NEWFOCK. 
 @PUTFOCK-I, Symmetry   1 Full Blocks  9 Partial Blocksize   1
 @PUTFOCK-I, Symmetry   2 Full Blocks  4 Partial Blocksize   3
 @PUTFOCK-I, Symmetry   3 Full Blocks  7 Partial Blocksize   0
 @PUTFOCK-I, Symmetry   4 Full Blocks  3 Partial Blocksize   0


 
  ORBITAL EIGENVALUES (ALPHA)  (1H = 27.2113834 eV)

       MO #        E(hartree)               E(eV)           FULLSYM    COMPSYM
       ----   --------------------   --------------------   -------   ---------
    1     1         -91.9669013939       -2502.5466139405      A1        A1 (1)
    2     2          -8.9690547848        -244.0603884846      A1        A1 (1)
    3    57          -6.6503376672        -180.9648880029      B2        B2 (3)
    4     3          -6.6495695275        -180.9439858576      A1        A1 (1)
    5    38          -6.6482700924        -180.9086264306      B1        B1 (2)
    6     4          -0.9822451390         -26.7282490688      A1        A1 (1)
    7    58          -0.5891931961         -16.0327619551      B2        B2 (3)
    8     5          -0.5020662079         -13.6619160756      A1        A1 (1)
    9    39          -0.3855043496         -10.4901066595      B1        B1 (2)
  +++++++++++++++++++++++++++++++++++++++++++++++++++++++++++++++++++++++++++++
   10     6           0.0287806775           0.7831620506      A1        A1 (1)
   11    59           0.0494366114           1.3452385877      B2        B2 (3)
   12     7           0.0905638150           2.4643666910      A1        A1 (1)
   13    40           0.1002419680           2.7277226236      B1        B1 (2)
   14    60           0.1089965791           2.9659477024      B2        B2 (3)
   15     8           0.1415921523           3.8529183418      A1        A1 (1)
   16    61           0.1666081470           4.5336381650      B2        B2 (3)
   17     9           0.2074767268           5.6457287584      A1        A1 (1)
   18    10           0.2190845942           5.9615948887      A1        A1 (1)
   19    85           0.2387091807           6.4956070361      A2        A2 (4)
   20    41           0.2411454736           6.5619019364      B1        B1 (2)
   21    62           0.2944763307           8.0131083381      B2        B2 (3)
   22    11           0.3327021881           9.0532867980      A1        A1 (1)
   23    63           0.3405372201           9.2664888593      B2        B2 (3)
   24    42           0.3643520522           9.9145233844      B1        B1 (2)
   25    12           0.3678989728          10.0110400025      A1        A1 (1)
   26    86           0.3699754953          10.0675450505      A2        A2 (4)
   27    13           0.4017021153          10.9308702708      A1        A1 (1)
   28    64           0.4070110080          11.0753325863      B2        B2 (3)
   29    65           0.5400485247          14.6954674590      B2        B2 (3)
   30    14           0.5530182970          15.0483929070      A1        A1 (1)
   31    43           0.5810151313          15.8102254977      B1        B1 (2)
   32    15           0.6091255967          16.5751501498      A1        A1 (1)
   33    16           0.6876442375          18.7117509893      A1        A1 (1)
   34    87           0.6923977559          18.8411008014      A2        A2 (4)
   35    44           0.7063426530          19.2205607426      B1        B1 (2)
   36    45           0.7867021494          21.4072538083      B1        B1 (2)
   37    66           0.8164126040          22.2157163801      B2        B2 (3)
   38    17           0.8301826870          22.5904193874      A1        A1 (1)
   39    67           0.8515818615          23.1727205293      B2        B2 (3)
   40    68           0.8752291238          23.8161952494      B2        B2 (3)
   41    88           0.8832745746          24.0351230962      A2        A2 (4)
   42    18           0.8947890822          24.3484487777      A1        A1 (1)
   43    46           0.9163516316          24.9351955763      B1        B1 (2)
   44    19           0.9545719524          25.9752233795      A1        A1 (1)
   45    20           0.9896443077          26.9295906862      A1        A1 (1)
   46    69           1.0012730384          27.2460245354      B2        B2 (3)
   47    89           1.0561419630          28.7390838805      A2        A2 (4)
   48    47           1.0753714357          29.2623444344      B1        B1 (2)
   49    70           1.0846276647          29.5142192316      B2        B2 (3)
   50    21           1.1092068050          30.1830516406      A1        A1 (1)
   51    90           1.1272793739          30.6748312415      A2        A2 (4)
   52    48           1.1598118538          31.5600850262      B1        B1 (2)
   53    22           1.1973080772          32.5804091373      A1        A1 (1)
   54    71           1.2725762810          34.6285610887      B2        B2 (3)
   55    72           1.3387001139          36.4278820563      B2        B2 (3)
   56    23           1.5759679476          42.8842680471      A1        A1 (1)
   57    73           1.6133592218          43.9017363464      B2        B2 (3)
   58    49           1.6149864985          43.9460167976      B1        B1 (2)
   59    91           1.6583957643          45.1272429718      A2        A2 (4)
   60    24           1.7002429241          46.2659620796      A1        A1 (1)
   61    25           1.7798224605          48.4314313566      A1        A1 (1)
   62    74           1.8112563415          49.2867907437      B2        B2 (3)
   63    92           2.0500294696          55.7841378772      A2        A2 (4)
   64    50           2.0576593717          55.9917580688      B1        B1 (2)
   65    26           2.0831691272          56.6859138078      A1        A1 (1)
   66    27           2.1951987427          59.7343946272      A1        A1 (1)
   67    75           2.2597483606          61.4908790288      B2        B2 (3)
   68    51           2.3509913397          63.9737267155      B1        B1 (2)
   69    52           2.3707957743          64.5126327778      B1        B1 (2)
   70    28           2.4199978606          65.8514896120      A1        A1 (1)
   71    76           2.4346732875          66.2508282799      B2        B2 (3)
   72    93           2.5526384864          69.4608245361      A2        A2 (4)
   73    77           2.6047985610          70.8801723244      B2        B2 (3)
   74    29           2.6304800882          71.5790022048      A1        A1 (1)
   75    53           2.6908583229          73.2219775001      B1        B1 (2)
   76    30           2.8506489327          77.5701010461      A1        A1 (1)
   77    78           3.0883034545          84.0370093557      B2        B2 (3)
   78    31           3.4424263188          93.6731823858      A1        A1 (1)
   79    79           3.5405172624          96.3423726618      B2        B2 (3)
   80    94           3.8758148463         105.4662837689      A2        A2 (4)
   81    32           3.9454137261         107.3601655726      A1        A1 (1)
   82    80           3.9701159185         108.0323464003      B2        B2 (3)
   83    54           4.0050051149         108.9817296993      B1        B1 (2)
   84    81           4.2260274697         114.9960537367      B2        B2 (3)
   85    55           4.3291215829         117.8013871769      B1        B1 (2)
   86    95           4.3474509945         118.3001558231      A2        A2 (4)
   87    33           4.4122820263         120.0642978875      A1        A1 (1)
   88    56           4.4433887619         120.9107551940      B1        B1 (2)
   89    96           4.5279104925         123.2107084133      A2        A2 (4)
   90    82           4.5642074403         124.1983985762      B2        B2 (3)
   91    34           4.6108964730         125.4688717449      A1        A1 (1)
   92    35           4.7215253716         128.4792371190      A1        A1 (1)
   93    83           4.8752304132         132.6617639378      B2        B2 (3)
   94    36           4.9660056702         135.1318842587      A1        A1 (1)
   95    84           5.5056204395         149.8155486343      B2        B2 (3)
   96    37           7.7227126974         210.1456960963      A1        A1 (1)


  VSCF finished.

 @CHECKOUT-I, Total execution time (CPU/WALL):        4.76/       0.76 seconds.
--executable xvscf finished with status     0 in        1.31 seconds (walltime).
 --invoking executable--
/home/CEISAM/blondel-a/soft/cfour2.1/cfour2.1-serial-mkl/bin/xvtran
 @GETMEM-I,  Allocated  238418 MB of main memory.
  Full RHF integral transformation
  The following   5 MOs will be dropped:
    1  2  3  6  8
  There are  91 active molecular orbitals.
  Transformation of IIII integrals :
  1 pass through the AO integral file was required.
      318692 AO integrals were read.
      266728 MO integrals were written to HF2.
  Transformation of IIJJ integrals :
  1 pass through the AO integral file was required.
      553516 AO integrals were read.
      480525 MO integrals were written to HF2.
  Transformation of IJIJ integrals :
  1 pass through the AO integral file was required.
     1030403 AO integrals were read.
      887262 MO integrals were written to HF2.
  Transformation of IJKL integrals :
  1 pass through the AO integral file was required.
      665794 AO integrals were read.
      594864 MO integrals were written to HF2.
  Summary of active molecular orbitals: 
------------------------------------------------------------------------
 
  Index      Eigenvalue    Symmetry    Index      Eigenvalue    Symmetry
------------------------------------------------------------------------
     1        -0.9822451        1        47         2.0576594        2
     2        -0.5020662        1        48         2.3509913        2
     3        -0.3855043        2        49         2.3707958        2
     4        -0.5891932        3        50         2.6908583        2
     5         0.0287807        1        51         4.0050051        2
     6         0.0905638        1        52         4.3291216        2
     7         0.1415922        1        53         4.4433888        2
     8         0.2074767        1        54         0.0494366        3
     9         0.2190846        1        55         0.1089966        3
    10         0.3327022        1        56         0.1666081        3
    11         0.3678990        1        57         0.2944763        3
    12         0.4017021        1        58         0.3405372        3
    13         0.5530183        1        59         0.4070110        3
    14         0.6091256        1        60         0.5400485        3
    15         0.6876442        1        61         0.8164126        3
    16         0.8301827        1        62         0.8515819        3
    17         0.8947891        1        63         0.8752291        3
    18         0.9545720        1        64         1.0012730        3
    19         0.9896443        1        65         1.0846277        3
    20         1.1092068        1        66         1.2725763        3
    21         1.1973081        1        67         1.3387001        3
    22         1.5759679        1        68         1.6133592        3
    23         1.7002429        1        69         1.8112563        3
    24         1.7798225        1        70         2.2597484        3
    25         2.0831691        1        71         2.4346733        3
    26         2.1951987        1        72         2.6047986        3
    27         2.4199979        1        73         3.0883035        3
    28         2.6304801        1        74         3.5405173        3
    29         2.8506489        1        75         3.9701159        3
    30         3.4424263        1        76         4.2260275        3
    31         3.9454137        1        77         4.5642074        3
    32         4.4122820        1        78         4.8752304        3
    33         4.6108965        1        79         5.5056204        3
    34         4.7215254        1        80         0.2387092        4
    35         4.9660057        1        81         0.3699755        4
    36         7.7227127        1        82         0.6923978        4
    37         0.1002420        2        83         0.8832746        4
    38         0.2411455        2        84         1.0561420        4
    39         0.3643521        2        85         1.1272794        4
    40         0.5810151        2        86         1.6583958        4
    41         0.7063427        2        87         2.0500295        4
    42         0.7867021        2        88         2.5526385        4
    43         0.9163516        2        89         3.8758148        4
    44         1.0753714        2        90         4.3474510        4
    45         1.1598119        2        91         4.5279105        4
    46         1.6149865        2
------------------------------------------------------------------------
 -0.982245138950048      -0.502066207908735      -0.385504349606098     
 -0.589193196076600       2.878067752261138E-002  9.056381495790800E-002
  0.141592152268906       0.207476726760013       0.219084594158982     
  0.332702188085705       0.367898972841796       0.401702115254325     
  0.553018297004284       0.609125596672601       0.687644237495555     
  0.830182686979247       0.894789082194564       0.954571952394841     
  0.989644307690411        1.10920680499598        1.19730807722385     
   1.57596794755748        1.70024292405401        1.77982246050059     
   2.08316912721728        2.19519874271574        2.41999786060075     
   2.63048008815361        2.85064893268697        3.44242631875027     
   3.94541372610213        4.41228202633396        4.61089647301609     
   4.72152537158473        4.96600567021033        7.72271269737352     
  0.100241967984424       0.241145473566305       0.364352052179193     
  0.581015131253386       0.706342653002068       0.786702149377221     
  0.916351631584362        1.07537143570744        1.15981185382266     
   1.61498649853927        2.05765937165927        2.35099133972933     
   2.37079577430693        2.69085832292265        4.00500511485404     
   4.32912158287917        4.44338876185238       4.943661143118624E-002
  0.108996579071772       0.166608146977391       0.294476330742580     
  0.340537220145311       0.407011007986103       0.540048524655377     
  0.816412604002310       0.851581861484735       0.875229123757512     
   1.00127303837963        1.08462766474277        1.27257628102446     
   1.33870011387610        1.61335922180397        1.81125634148028     
   2.25974836063475        2.43467328750106        2.60479856104558     
   3.08830345449270        3.54051726241055        3.97011591848195     
   4.22602746969185        4.56420744033945        4.87523041323252     
   5.50562043950616       0.238709180663234       0.369975495272700     
  0.692397755912024       0.883274574573697        1.05614196301795     
   1.12727937387924        1.65839576431936        2.05002946955077     
   2.55263848643819        3.87581484625733        4.34745099446396     
   4.52791049253612     
 @CHECKOUT-I, Total execution time (CPU/WALL):       10.77/       0.72 seconds.
--executable xvtran finished with status     0 in        1.28 seconds (walltime).
 --invoking executable--
/home/CEISAM/blondel-a/soft/cfour2.1/cfour2.1-serial-mkl/bin/xintprc
 @GETMEM-I,  Allocated  238418 MB of main memory.
  @GMOIAA-I, Processing MO integrals for spin case AA.
  @GMOIAA-I, Generation of integral list completed.
                      TYPE                NUMBER
                      ----               --------
                      PPPP               1862118
                      PPPH                340336
                      PPHH                 15793
                      PHPH                 10160
                      PHHH                   950
                      HHHH                    22

                     TOTAL               2229379

  @FORMT2-I, Second-order MP correlation energies:
            ------------------------------------------------
            E(SCF)                  =   -398.713825005337 a.u.
            E2(AA)                  =     -0.020016225654 a.u.
            E2(AB)                  =     -0.154957737503 a.u.
            E2(TOT)                 =     -0.194990188810 a.u.
            Total MP2 energy        =   -398.908815194148 a.u.
            ------------------------------------------------
   Largest T2 amplitudes for spin case AB:
       _       _                 _       _                 _       _
   i   j   a   b             i   j   a   b             i   j   a   b
-----------------------------------------------------------------------------
[  3   3  40  40]-0.02254 [  4   4  56  56]-0.02129 [  2   2  56  56]-0.02083
[  3   3  82  82]-0.01933 [  3   3  41  41]-0.01890 [  2   2  14  14]-0.01834
[  2   2   9   9]-0.01697 [  3   3  38  38]-0.01577 [  3   3  80  80]-0.01562
[  3   3   9   9]-0.01516 [  4   4  82  82]-0.01490 [  4   4   8   8]-0.01439
[  2   2  56  55]-0.01403 [  2   2  55  56]-0.01403 [  2   2  15  15]-0.01403
-----------------------------------------------------------------------------
   Norm of T2AB vector (    31238 symmetry allowed elements):  0.2456386248.
-----------------------------------------------------------------------------
 @CHECKOUT-I, Total execution time (CPU/WALL):        5.65/       0.60 seconds.
--executable xintprc finished with status     0 in        1.16 seconds (walltime).
  calling xvcc 
 --invoking executable--
/home/CEISAM/blondel-a/soft/cfour2.1/cfour2.1-serial-mkl/bin/xvcc
 @GETMEM-I,  Allocated  238418 MB of main memory.
   CC2 energy will be calculated.
   The total correlation energy is -0.194990188810 a.u.
   The total correlation energy is -0.194977767065 a.u.
  Convergence information after     1 iterations: 
  Largest element of residual vector :  0.67247576E-02.
  Largest element of DIIS residual   :  0.67247576E-02.
   The total correlation energy is -0.195739401704 a.u.
  Convergence information after     2 iterations: 
  Largest element of residual vector :  0.21233018E-02.
  Largest element of DIIS residual   :  0.11589454E-02.
   The total correlation energy is -0.195950359538 a.u.
  Convergence information after     3 iterations: 
  Largest element of residual vector :  0.11100687E-02.
  Largest element of DIIS residual   :  0.37039069E-03.
   The total correlation energy is -0.196074526998 a.u.
  Convergence information after     4 iterations: 
  Largest element of residual vector :  0.13091787E-03.
  Largest element of DIIS residual   : -0.59954777E-04.
   The total correlation energy is -0.196075983373 a.u.
  Convergence information after     5 iterations: 
  Largest element of residual vector :  0.40153770E-04.
  Largest element of DIIS residual   :  0.21265341E-04.
   The total correlation energy is -0.196075757302 a.u.
  Convergence information after     6 iterations: 
  Largest element of residual vector :  0.73483551E-05.
  Largest element of DIIS residual   : -0.57659705E-05.
   The total correlation energy is -0.196075795768 a.u.
  Convergence information after     7 iterations: 
  Largest element of residual vector :  0.29971231E-05.
  Largest element of DIIS residual   :  0.19195042E-05.
   The total correlation energy is -0.196075785456 a.u.
  Convergence information after     8 iterations: 
  Largest element of residual vector :  0.65724281E-06.
  Largest element of DIIS residual   :  0.34346143E-06.
   The total correlation energy is -0.196075804612 a.u.
  Convergence information after     9 iterations: 
  Largest element of residual vector :  0.18683612E-06.
  Largest element of DIIS residual   :  0.84323573E-07.
   The total correlation energy is -0.196075806767 a.u.
  Convergence information after    10 iterations: 
  Largest element of residual vector : -0.43600788E-07.
  Largest element of DIIS residual   : -0.36179161E-07.
  Amplitude equations converged in    10iterations.
   The total correlation energy is -0.196075807674 a.u.
   The CC iterations have converged.

   Largest T1 amplitudes for spin case AA:
   i       a                 i       a                 i       a    
-----------------------------------------------------------------------------
[  4      56    ] 0.01097 [  3      38    ] 0.01096 [  2       8    ]-0.01074
[  4      55    ] 0.00803 [  4      57    ]-0.00685 [  2      16    ]-0.00602
[  3      41    ]-0.00547 [  2      11    ] 0.00531 [  1      12    ] 0.00522
[  1       7    ]-0.00464 [  4      61    ] 0.00430 [  4      59    ]-0.00425
[  2      15    ] 0.00406 [  3      39    ]-0.00383 [  2      12    ] 0.00362
-----------------------------------------------------------------------------
   Norm of T1AA vector (      107 symmetry allowed elements):  0.0286847902.
-----------------------------------------------------------------------------
   Largest T2 amplitudes for spin case AB:
       _       _                 _       _                 _       _
   i   j   a   b             i   j   a   b             i   j   a   b
-----------------------------------------------------------------------------
[  3   3  40  40]-0.02247 [  4   4  56  56]-0.02172 [  2   2  56  56]-0.02137
[  3   3  82  82]-0.01950 [  3   3  41  41]-0.01903 [  2   2  14  14]-0.01833
[  2   2   9   9]-0.01716 [  3   3  38  38]-0.01609 [  3   3  80  80]-0.01581
[  3   3   9   9]-0.01510 [  4   4  82  82]-0.01493 [  4   4   8   8]-0.01464
[  2   2  56  55]-0.01441 [  2   2  55  56]-0.01441 [  2   2  15  15]-0.01415
-----------------------------------------------------------------------------
   Norm of T2AB vector (    31238 symmetry allowed elements):  0.2471792347.
-----------------------------------------------------------------------------
       Summary of iterative solution of CC equations 
      -----------------------------------------------------------
                       Correlation           Total
       Iteration         Energy              Energy
      -----------------------------------------------------------
            0        -0.194990188810    -398.908815194148  DIIS 
            1        -0.194977767065    -398.908802772403  DIIS 
            2        -0.195739401704    -398.909564407041  DIIS 
            3        -0.195950359538    -398.909775364875  DIIS 
            4        -0.196074526998    -398.909899532335  DIIS 
            5        -0.196075983373    -398.909900988710  DIIS 
            6        -0.196075757302    -398.909900762639  DIIS 
            7        -0.196075795768    -398.909900801105  DIIS 
            8        -0.196075785456    -398.909900790793  DIIS 
            9        -0.196075804612    -398.909900809949  DIIS 
           10        -0.196075807674    -398.909900813012  DIIS 
      -----------------------------------------------------------
      A miracle has come to pass. The CC iterations have converged.
      The reference energy is      -398.71382500533730 a.u.
      The correlation energy is      -0.19607580767422 a.u.
      The total energy is          -398.90990081301152 a.u.
 @CHECKOUT-I, Total execution time (CPU/WALL):       19.61/       1.04 seconds.
--executable xvcc finished with status     0 in        1.59 seconds (walltime).
 --invoking executable--
/home/CEISAM/blondel-a/soft/cfour2.1/cfour2.1-serial-mkl/bin/xlambda
 @GETMEM-I,  Allocated  238418 MB of main memory.
 Hbar is calculated for a CC2 wave function.
 Calculation of Hbar completed.
 @CHECKOUT-I, Total execution time (CPU/WALL):        4.85/       0.32 seconds.
--executable xlambda finished with status     0 in        0.86 seconds (walltime).
 --invoking executable--
/home/CEISAM/blondel-a/soft/cfour2.1/cfour2.1-serial-mkl/bin/xvee
 @GETMEM-I,  Allocated  238418 MB of main memory.
  cc2 and ccprog  T                     0
  EOMEE-CC2 excitation energies will be evaluated.
  @SETMET-I, VPROP property integrals are used.
  @SETMET-I, A total of   2 target states will be studied.
  Summary of active alpha molecular orbitals:
------------------------------------------------------------------------------
Orbital      Sym   Eigenvalue  <xx>     <yy>     <zz>     <xy>     <xz>     <yz>
        SCF
  #  position
------------------------------------------------------------------------------
   1      6    1      -0.9822   0.000    0.000    0.000    0.000    0.000    0.000
   2      8    1      -0.5021   0.000    0.000    0.000    0.000    0.000    0.000
   3      9    2      -0.3855   0.000    0.000    0.000    0.000    0.000    0.000
   4      7    3      -0.5892   0.000    0.000    0.000    0.000    0.000    0.000
   5     10    1       0.0288   0.000    0.000    0.000    0.000    0.000    0.000
   6     12    1       0.0906   0.000    0.000    0.000    0.000    0.000    0.000
   7     15    1       0.1416   0.000    0.000    0.000    0.000    0.000    0.000
   8     17    1       0.2075   0.000    0.000    0.000    0.000    0.000    0.000
   9     18    1       0.2191   0.000    0.000    0.000    0.000    0.000    0.000
  10     22    1       0.3327   0.000    0.000    0.000    0.000    0.000    0.000
  11     25    1       0.3679   0.000    0.000    0.000    0.000    0.000    0.000
  12     27    1       0.4017   0.000    0.000    0.000    0.000    0.000    0.000
  13     30    1       0.5530   0.000    0.000    0.000    0.000    0.000    0.000
  14     32    1       0.6091   0.000    0.000    0.000    0.000    0.000    0.000
  15     33    1       0.6876   0.000    0.000    0.000    0.000    0.000    0.000
  16     38    1       0.8302   0.000    0.000    0.000    0.000    0.000    0.000
  17     42    1       0.8948   0.000    0.000    0.000    0.000    0.000    0.000
  18     44    1       0.9546   0.000    0.000    0.000    0.000    0.000    0.000
  19     45    1       0.9896   0.000    0.000    0.000    0.000    0.000    0.000
  20     50    1       1.1092   0.000    0.000    0.000    0.000    0.000    0.000
  21     53    1       1.1973   0.000    0.000    0.000    0.000    0.000    0.000
  22     56    1       1.5760   0.000    0.000    0.000    0.000    0.000    0.000
  23     60    1       1.7002   0.000    0.000    0.000    0.000    0.000    0.000
  24     61    1       1.7798   0.000    0.000    0.000    0.000    0.000    0.000
  25     65    1       2.0832   0.000    0.000    0.000    0.000    0.000    0.000
  26     66    1       2.1952   0.000    0.000    0.000    0.000    0.000    0.000
  27     70    1       2.4200   0.000    0.000    0.000    0.000    0.000    0.000
  28     74    1       2.6305   0.000    0.000    0.000    0.000    0.000    0.000
  29     76    1       2.8506   0.000    0.000    0.000    0.000    0.000    0.000
  30     78    1       3.4424   0.000    0.000    0.000    0.000    0.000    0.000
  31     81    1       3.9454   0.000    0.000    0.000    0.000    0.000    0.000
  32     87    1       4.4123   0.000    0.000    0.000    0.000    0.000    0.000
  33     91    1       4.6109   0.000    0.000    0.000    0.000    0.000    0.000
  34     92    1       4.7215   0.000    0.000    0.000    0.000    0.000    0.000
  35     94    1       4.9660   0.000    0.000    0.000    0.000    0.000    0.000
  36     96    1       7.7227   0.000    0.000    0.000    0.000    0.000    0.000
  37     13    2       0.1002   0.000    0.000    0.000    0.000    0.000    0.000
  38     20    2       0.2411   0.000    0.000    0.000    0.000    0.000    0.000
  39     24    2       0.3644   0.000    0.000    0.000    0.000    0.000    0.000
  40     31    2       0.5810   0.000    0.000    0.000    0.000    0.000    0.000
  41     35    2       0.7063   0.000    0.000    0.000    0.000    0.000    0.000
  42     36    2       0.7867   0.000    0.000    0.000    0.000    0.000    0.000
  43     43    2       0.9164   0.000    0.000    0.000    0.000    0.000    0.000
  44     48    2       1.0754   0.000    0.000    0.000    0.000    0.000    0.000
  45     52    2       1.1598   0.000    0.000    0.000    0.000    0.000    0.000
  46     58    2       1.6150   0.000    0.000    0.000    0.000    0.000    0.000
  47     64    2       2.0577   0.000    0.000    0.000    0.000    0.000    0.000
  48     68    2       2.3510   0.000    0.000    0.000    0.000    0.000    0.000
  49     69    2       2.3708   0.000    0.000    0.000    0.000    0.000    0.000
  50     75    2       2.6909   0.000    0.000    0.000    0.000    0.000    0.000
  51     83    2       4.0050   0.000    0.000    0.000    0.000    0.000    0.000
  52     85    2       4.3291   0.000    0.000    0.000    0.000    0.000    0.000
  53     88    2       4.4434   0.000    0.000    0.000    0.000    0.000    0.000
  54     11    3       0.0494   0.000    0.000    0.000    0.000    0.000    0.000
  55     14    3       0.1090   0.000    0.000    0.000    0.000    0.000    0.000
  56     16    3       0.1666   0.000    0.000    0.000    0.000    0.000    0.000
  57     21    3       0.2945   0.000    0.000    0.000    0.000    0.000    0.000
  58     23    3       0.3405   0.000    0.000    0.000    0.000    0.000    0.000
  59     28    3       0.4070   0.000    0.000    0.000    0.000    0.000    0.000
  60     29    3       0.5400   0.000    0.000    0.000    0.000    0.000    0.000
  61     37    3       0.8164   0.000    0.000    0.000    0.000    0.000    0.000
  62     39    3       0.8516   0.000    0.000    0.000    0.000    0.000    0.000
  63     40    3       0.8752   0.000    0.000    0.000    0.000    0.000    0.000
  64     46    3       1.0013   0.000    0.000    0.000    0.000    0.000    0.000
  65     49    3       1.0846   0.000    0.000    0.000    0.000    0.000    0.000
  66     54    3       1.2726   0.000    0.000    0.000    0.000    0.000    0.000
  67     55    3       1.3387   0.000    0.000    0.000    0.000    0.000    0.000
  68     57    3       1.6134   0.000    0.000    0.000    0.000    0.000    0.000
  69     62    3       1.8113   0.000    0.000    0.000    0.000    0.000    0.000
  70     67    3       2.2597   0.000    0.000    0.000    0.000    0.000    0.000
  71     71    3       2.4347   0.000    0.000    0.000    0.000    0.000    0.000
  72     73    3       2.6048   0.000    0.000    0.000    0.000    0.000    0.000
  73     77    3       3.0883   0.000    0.000    0.000    0.000    0.000    0.000
  74     79    3       3.5405   0.000    0.000    0.000    0.000    0.000    0.000
  75     82    3       3.9701   0.000    0.000    0.000    0.000    0.000    0.000
  76     84    3       4.2260   0.000    0.000    0.000    0.000    0.000    0.000
  77     90    3       4.5642   0.000    0.000    0.000    0.000    0.000    0.000
  78     93    3       4.8752   0.000    0.000    0.000    0.000    0.000    0.000
  79     95    3       5.5056   0.000    0.000    0.000    0.000    0.000    0.000
  80     19    4       0.2387   0.000    0.000    0.000    0.000    0.000    0.000
  81     26    4       0.3700   0.000    0.000    0.000    0.000    0.000    0.000
  82     34    4       0.6924   0.000    0.000    0.000    0.000    0.000    0.000
  83     41    4       0.8833   0.000    0.000    0.000    0.000    0.000    0.000
  84     47    4       1.0561   0.000    0.000    0.000    0.000    0.000    0.000
  85     51    4       1.1273   0.000    0.000    0.000    0.000    0.000    0.000
  86     59    4       1.6584   0.000    0.000    0.000    0.000    0.000    0.000
  87     63    4       2.0500   0.000    0.000    0.000    0.000    0.000    0.000
  88     72    4       2.5526   0.000    0.000    0.000    0.000    0.000    0.000
  89     80    4       3.8758   0.000    0.000    0.000    0.000    0.000    0.000
  90     86    4       4.3475   0.000    0.000    0.000    0.000    0.000    0.000
  91     89    4       4.5279   0.000    0.000    0.000    0.000    0.000    0.000
------------------------------------------------------------------------------
  @DRVTDA-I, Roots obtained by Davidson method.
  calling tda davidson                       4                     2
  after tda davidson                      4                     4
                     1                     1
  kroot is                      1
  calling tda davidson                       4                     4
  after tda davidson                      4                     4
                     1                     1
  kroot is                      1
__________________________________________________________________________
    Tamm-Dancoff (CIS) Excitation Energies and Transition Moments

                Excitation         Transition Dipole         Oscillator
 Root  Symmetry  Energy         x           y           z     Strength
__________________________________________________________________________
   1       2    0.24294      0.0000      0.0000      0.0000  .00000000D+00
__________________________________________________________________________
 
__________________________________________________________________________
  TDA excitation ergy:             0.242943873549 a.u.    6.6108 eV
  Total TDA electronic energy:  -398.470881131789 a.u.
 
  Dominant contributions: 
  SCF eigenvalue ordering used in list below. 
--------------------------------------------------------------------------------
    I    j    A    b
--------------------------------------------------------------------------------
    9    0   10    0  -0.8487093927 AA  
    9    0   15    0   0.4957951089 AA  
    9    0   27    0  -0.1372323702 AA  
    9    0   18    0  -0.0737155422 AA  
    9    0   17    0  -0.0655745485 AA  
    9    0   25    0   0.0381157467 AA  
    9    0   45    0   0.0278225809 AA  
    8    0   13    0  -0.0200524118 AA  
    9    0   22    0   0.0190382349 AA  
    9    0   44    0   0.0190358564 AA  
    9    0   32    0   0.0180304971 AA  
    7    0   19    0   0.0149748340 AA  
    8    0   24    0   0.0139618431 AA  
    6    0   13    0  -0.0132357357 AA  
    8    0   35    0   0.0129724121 AA  
--------------------------------------------------------------------------------
   1       4    0.23251      0.0000      0.0000      0.0000  .00000000D+00
__________________________________________________________________________
 
__________________________________________________________________________
  TDA excitation ergy:             0.232514672807 a.u.    6.3270 eV
  Total TDA electronic energy:  -398.481310332530 a.u.
 
  Dominant contributions: 
  SCF eigenvalue ordering used in list below. 
--------------------------------------------------------------------------------
    I    j    A    b
--------------------------------------------------------------------------------
    9    0   16    0  -0.6937228860 AA  
    9    0   14    0  -0.6206761216 AA  
    9    0   21    0   0.2314343653 AA  
    9    0   11    0   0.2073591271 AA  
    9    0   28    0   0.1445746983 AA  
    9    0   23    0   0.0841634430 AA  
    9    0   29    0  -0.0600531480 AA  
    9    0   37    0  -0.0575944283 AA  
    9    0   40    0   0.0281671698 AA  
    9    0   46    0  -0.0141953491 AA  
    9    0   55    0   0.0139013635 AA  
    9    0   62    0   0.0110484169 AA  
    6    0   26    0   0.0105230745 AA  
    9    0   67    0   0.0101576295 AA  
    6    0   41    0  -0.0095665407 AA  
--------------------------------------------------------------------------------
__________________________________________________________________________
  @DOEOMEE-I, Excitation energies computed by the EOMEE-CC2/CC2-LR method.
  @DOEOMEE-I, right-hand eigenvectors will be computed.
  Beginning symmetry block   2.   1 roots requested.
  @DOEOMEE-I, Matrix dimension for diagonalization:    29634
  Creating initial guess for root
________________________________________________________________________
            Subspace          Eigenvalue           
 Iteration  Dimension   (a.u.)         (eV)       Overlap      Residual
________________________________________________________________________
  @NEWGES-I, Using TDA initial guess.
  1   1  0.2989733377D+00  0.8135478118D+01  0.0000000000D+00  0.2309215661D+00
  2   2  0.2328393684D+00  0.6335881325D+01  0.9754761935D+00  0.9257091236D-01
  3   3  0.2318913850D+00  0.6310085385D+01  0.9983331505D+00  0.1482531619D-01
  4   4  0.2317323660D+00  0.6305758257D+01  0.9996801212D+00  0.1038176338D-01
  5   5  0.2316814735D+00  0.6304373403D+01  0.9999092844D+00  0.3359433434D-02
  L-O-C-K-I-N-G O-N R-O-O-T 
  6   6  0.2316737381D+00  0.6304162910D+01  0.9999884310D+00  0.1188469725D-02
  7   7  0.2316739883D+00  0.6304169720D+01  0.9999989253D+00  0.5988463728D-03
  8   8  0.2316738080D+00  0.6304164813D+01  0.9999996935D+00  0.2131575561D-03
  9   9  0.2316737526D+00  0.6304163306D+01  0.9999999604D+00  0.6213418137D-04
 10  10  0.2316737245D+00  0.6304162540D+01  0.9999999952D+00  0.4086982325D-04
 11  11  0.2316737172D+00  0.6304162342D+01  0.9999999983D+00  0.1576251237D-04
 12  12  0.2316737205D+00  0.6304162433D+01  0.9999999998D+00  0.4821020870D-05
  Converged eigenvalue:   0.231673720545881       a.u.
   Total EOMEE-CC2 electronic energy     -398.678227092465647 a.u.
  Converged eigenvector 
  SCF eigenvalue ordering used in list below. 
--------------------------------------------------------------------------------
    I    j    A    b
--------------------------------------------------------------------------------
    9    0   10    0  -0.5813788748 AA  
    9    0   15    0   0.3481652766 AA  
    9    0   27    0  -0.0973559719 AA  
    9    0   18    0  -0.0552528154 AA  
    9    0   17    0  -0.0465355796 AA  
    9    9   13   10  -0.0395256066 ABAB
    9    9   10   13  -0.0395256066 ABAB
    9    9   31   10   0.0333193768 ABAB
    9    9   10   31   0.0333193768 ABAB
    7    9   16   10  -0.0293838354 ABAB
    9    7   10   16  -0.0293838354 ABAB
    9    0   25    0   0.0288152154 AA  
    9    0   12    0   0.0248011253 AA  
    7    9   28   10   0.0209040455 ABAB
    9    7   10   28   0.0209040455 ABAB
--------------------------------------------------------------------------------
  Converged eigenvector, normalized to one 
  SCF eigenvalue ordering used in list below. 
--------------------------------------------------------------------------------
    I    j    A    b
--------------------------------------------------------------------------------
    9    0   10    0  -0.5813788748 AA  
    9    0   15    0   0.3481652766 AA  
    9    0   27    0  -0.0973559719 AA  
    9    0   18    0  -0.0552528154 AA  
    9    0   17    0  -0.0465355796 AA  
    9    9   13   10  -0.0395256066 ABAB
    9    9   10   13  -0.0395256066 ABAB
    9    9   31   10   0.0333193768 ABAB
    9    9   10   31   0.0333193768 ABAB
    7    9   16   10  -0.0293838354 ABAB
    9    7   10   16  -0.0293838354 ABAB
    9    0   25    0   0.0288152154 AA  
    9    0   12    0   0.0248011253 AA  
    7    9   28   10   0.0209040455 ABAB
    9    7   10   28   0.0209040455 ABAB
--------------------------------------------------------------------------------

  Eigenvector is saved on CCRE_2_1  

  Solution of   1 roots required   12 iterations.
  @DOEOMEE-I, right-hand eigenvectors will be computed.
  Beginning symmetry block   4.   1 roots requested.
  @DOEOMEE-I, Matrix dimension for diagonalization:    29381
  Creating initial guess for root
________________________________________________________________________
            Subspace          Eigenvalue           
 Iteration  Dimension   (a.u.)         (eV)       Overlap      Residual
________________________________________________________________________
  @NEWGES-I, Using TDA initial guess.
  1   1  0.3028777439D+00  0.8241722413D+01  0.0000000000D+00  0.2020496513D+00
  2   2  0.2340796733D+00  0.6369631736D+01  0.9804876792D+00  0.7494082166D-01
  3   3  0.2333050957D+00  0.6348554408D+01  0.9988325595D+00  0.1368621837D-01
  4   4  0.2332199468D+00  0.6346237390D+01  0.9999117606D+00  0.7411403574D-02
  5   5  0.2331946504D+00  0.6345549039D+01  0.9999678297D+00  0.2293547419D-02
  L-O-C-K-I-N-G O-N R-O-O-T 
  6   6  0.2331922106D+00  0.6345482649D+01  0.9999929447D+00  0.1299326606D-02
  7   7  0.2331915136D+00  0.6345463682D+01  0.9999964792D+00  0.6690130226D-03
  8   8  0.2331911199D+00  0.6345452968D+01  0.9999991459D+00  0.1894393629D-03
  9   9  0.2331909058D+00  0.6345447142D+01  0.9999999733D+00  0.1023661125D-03
 10  10  0.2331908732D+00  0.6345446257D+01  0.9999999928D+00  0.2741508012D-04
 11  11  0.2331908737D+00  0.6345446270D+01  0.9999999997D+00  0.5490599927D-05
  Converged eigenvalue:   0.233190873699816       a.u.
   Total EOMEE-CC2 electronic energy     -398.676709939311706 a.u.
  Converged eigenvector 
  SCF eigenvalue ordering used in list below. 
--------------------------------------------------------------------------------
    I    j    A    b
--------------------------------------------------------------------------------
    9    0   16    0  -0.4822214281 AA  
    9    0   14    0  -0.4311705657 AA  
    9    0   11    0   0.1594726863 AA  
    9    0   21    0   0.1486902540 AA  
    9    0   28    0   0.1000896722 AA  
    9    0   23    0   0.0487293596 AA  
    9    0   29    0  -0.0392794624 AA  
    9    0   37    0  -0.0329446608 AA  
    9    0   40    0   0.0215301471 AA  
    9    9   14   13  -0.0168968331 ABAB
    9    9   13   14  -0.0168968331 ABAB
    9    8   38   16  -0.0161711760 ABAB
    8    9   16   38  -0.0161711760 ABAB
    9    9   14   31   0.0160240135 ABAB
    9    9   31   14   0.0160240135 ABAB
--------------------------------------------------------------------------------
  Converged eigenvector, normalized to one 
  SCF eigenvalue ordering used in list below. 
--------------------------------------------------------------------------------
    I    j    A    b
--------------------------------------------------------------------------------
    9    0   16    0  -0.4822214281 AA  
    9    0   14    0  -0.4311705657 AA  
    9    0   11    0   0.1594726863 AA  
    9    0   21    0   0.1486902540 AA  
    9    0   28    0   0.1000896722 AA  
    9    0   23    0   0.0487293596 AA  
    9    0   29    0  -0.0392794624 AA  
    9    0   37    0  -0.0329446608 AA  
    9    0   40    0   0.0215301471 AA  
    9    9   14   13  -0.0168968331 ABAB
    9    9   13   14  -0.0168968331 ABAB
    9    8   38   16  -0.0161711760 ABAB
    8    9   16   38  -0.0161711760 ABAB
    9    9   14   31   0.0160240135 ABAB
    9    9   31   14   0.0160240135 ABAB
--------------------------------------------------------------------------------

  Eigenvector is saved on CCRE_4_1  

  Solution of   1 roots required   11 iterations.
 @CHECKOUT-I, Total execution time (CPU/WALL):       20.25/       1.07 seconds.
--executable xvee finished with status     0 in        1.62 seconds (walltime).
  The final electronic energy is      -398.676709939311706 a.u. 
  This computation required                           13.27 seconds (walltime).
