 --invoking executable--
/home/CEISAM/blondel-a/soft/cfour2.1/cfour2.1-serial-mkl/bin/xjoda


   *************************************************************************
         <<<     CCCCCC     CCCCCC   |||     CCCCCC     CCCCCC   >>>
       <<<      CCC        CCC       |||    CCC        CCC         >>>
      <<<      CCC        CCC        |||   CCC        CCC            >>>
    <<<        CCC        CCC        |||   CCC        CCC              >>>
      <<<      CCC        CCC        |||   CCC        CCC            >>>
       <<<      CCC        CCC       |||    CCC        CCC         >>>
         <<<     CCCCCC     CCCCCC   |||     CCCCCC     CCCCCC   >>>
   *************************************************************************

     ****************************************************************
     * CFOUR Coupled-Cluster techniques for Computational Chemistry *
     ****************************************************************
 

   Department of Chemistry                Institut fuer Physikalische Chemie
   University of Florida                  Universitaet Mainz
   Gainesville, FL 32611, USA             D-55099 Mainz, Germany

   Department of Chemistry                Fakultaet fuer Chemie und Biowiss.
   Johns Hopkins University               Karlsruher Institut fuer Technologie
   Baltimore, MD 21218, USA               D-76131 Karlsruhe, Germany

   Department of Chemistry                Department of Physical Chemistry
   Southern Methodist University          Eotvos Lorand University
   Dallas, TX 75275, USA                  H-1053 Budapest, Hungary

 
                       Version 2.1
 
                     cribbar041                                        
                     Mon May  3 07:59:31 CEST 2021                     
                     integer*8 version is running
 
********************************************************************************
*                          Input from ZMAT file                                *
********************************************************************************
Ketene -GS                                                                      
N            0.12804615    -0.00000000     0.00000000                           
H           -0.59303935     0.88580079    -1.53425197                           
H           -0.59303935    -1.77160157    -0.00000000                           
H           -0.59303935     0.88580079     1.53425197                           
                                                                                
*CFOUR(COORD=CARTESIAN,UNITS=BOHR                                               
       MEMORY=250,MEM_UNIT=GB,CC_PROG=ECC                                       
       FROZEN_CORE=1                                                            
       CALC=CC2,BASIS=AUG-PVDZ                                                  
       SCF_CONV=8,CC_CONV=7,ESTATE_CONV=5,ESTATE_MAXCYC=120                     
       EXCITE=EOMEE,ESTATE_SYM=5/5)                                             
                                                                                
********************************************************************************
    -------------------------------------------------------------------
                    CFOUR Control Parameters 
    -------------------------------------------------------------------
        External           Internal           Value            Units
          Name               Name
    -------------------------------------------------------------------
       ABCDTYPE             IABCDT         STANDARD    [  0]    ***   
       ANHARMONIC           IANHAR         OFF         [  0]    ***   
       ANH_ALGORIT          IANALG         STANDARD    [  0]    ***   
       ANH_DERIVAT          IANDER         SECOND      [  1]    ***   
       ANH_MODE             ANHMOD         VIBRATION   [  0]    ***   
       ANH_STEPSIZ          ICUBST             50000          x 10-6  
       ANH_SYMMETR          IANHSM         ABELIAN     [  0]    ***   
       AO_LADDERS           IAOLAD         SINGLEPASS  [  1]    ***   
       AV_SCF               IAVSCF         OFF         [  0]    ***   
       BASIS                IBASIS         AUG-PVDZ    [ 33]    ***   
       BOTHVECTORS          BOTHVC         OFF         [  0]    ***   
       BOX_POTENT           IPIAB          OFF         [  0]    ***   
       BREIT                IBREIT         OFF         [  0]    ***   
       BRUCK_CONV           IBRTOL          10D-  4             ***   
       BRUECKNER            IBRKNR         OFF         [  0]    ***   
       BUFFERSIZE           IBUFFS              4096            ***   
       CACHE_RECS           ICHREC             10               ***   
       CALCLEVEL            ICLLVL         CC2         [ 31]    ***   
       CCORBOPT             ICCORB         OFF         [  0]  x 0.01  
       CC_CONV              ICCCNV          10D-  7             ***   
       CC_EXPORDER          ICCEOR              5               ***   
       CC_EXTRAPOL          ICCEXT         DIIS        [  1]    ***   
       CC_GUESS             ICCGES         MP2         [  0]    ***   
       CC_MAXCYC            ICCCYC            100              cycles 
       CC_PROGRAM           ICCPRO         VCC         [  0]    ***   
       CHARGE               ICHRGE              0               ***   
       CHOLESKY             ICHOLE         OFF         [  0]    ***   
       CIS_CONV             ICISTL              5               ***   
       COMM_SIZE            IPSIZE            ***               ***   
       CONSTANT             ICONST         OLD         [  1]    ***   
       CONTINUUM            ICONTU         NONE        [  0]    ***   
       CONTRACTION          ICNTYP         GENERAL     [  1]    ***   
       COORDINATES          ICOORD         CARTESIAN   [  1]    ***   
       CPHF_CONVER          ICPHFT          10D- 16             ***   
       CPHF_MAXCYC          ICPHFC             64              cycles 
       CUBIC                ICUBIC         OFF         [  0]    ***   
       CURVILINEAR          ICURVY         OFF         [  0]    ***   
       DBOC                 IDBOC          OFF         [  0]    ***   
       DCT                  IDCT           OFF         [  0]    ***   
       DERIV_LEV            IDRLVL         ZERO        [  0]    ***   
       DEVMEM_SIZE          IDVMEM         *********           MByte  
       DIAG_MRCC            IEOMST          10D-  0             ***   
       DIFF_TYPE            IDIFTY         RELAXED     [  0]    ***   
       DIRECT               IDIRCT         OFF         [  0]    ***   
       DROPMO               IDRPMO      NONE         
       ECP                  IECP           OFF         [  0]    ***   
       EIGENVECTOR          IVEC                1               ***   
       EL_ANHARM            IELANH         OFF         [  0]    ***   
       EOMFOLLOW            IEOMSR         ENERGY      [  0]    ***   
       EOMIP                IEOMIP         OFF         [  0]    ***   
       EOMLEVEL             HBARFM         SAME        [  0]    ***   
       EOM_MRCC             IMRCCE         NEW         [  1]    ***   
       EOM_NONIT            EOMNON         OFF         [  0]    ***   
       EOM_NSING            IEOMSI          10D-  0             ***   
       EOM_NSTATES          IMRCCD         DAVIDSON    [  0]    ***   
       EOM_NTRIP            IEOMTR          10D-  0             ***   
       EOM_ORDER            IEXORD         ENERGY      [  0]    ***   
       EOM_PROPSTA          IEOMST              0               ***   
       ESTATE_CONV          IEXTOL          10D-  5             ***   
       ESTATE_DIAG          IEXDIG         ITERATIVE   [  0]    ***   
       ESTATE_LOCK          IESLOC         ON          [  1]    ***   
       ESTATE_MAXC          IEXMXC            120               ***   
       ESTATE_PROP          IEXPRP         OFF         [  0]    ***   
       ESTATE_SYM           IEXSYM   5,  5,
       EVAL_HESS            IRECAL              0            # of cyc.
       EXCITATION           IEXCIT              0               ***   
       EXCITE               IEXCIT         EOMEE       [  3]    ***   
       EXTERN_POT           IEXPOT         OFF         [  0]    ***   
       FCGRADNEW            IFCGNW         OFF         [  0]    ***   
       FC_FIELD             IFINFC              0             x 10-6  
       FD_CALTYPE           IFDCAL         GRADONLY    [  0]    ***   
       FD_PROJECT           IFDPRJ         OFF         [  1]    ***   
       FD_STEPSIZE          IDISFD              0            10-4 bohr
       FD_USEGROUP          IFDGRP         FULL        [  0]    ***   
       FILE_RECSIZ          IFLREC              4096           words  
       FINITE_PERT          IFIPER              0             x 10-6  
       FIXGEOM              IFIXGM         OFF         [  0]    ***   
       FOCK                 IFOCK          AO          [  1]    ***   
       FREQ_ALGORI          IVIALG         STANDARD    [  0]    ***   
       FROZEN_CORE          IFROCO         ON          [  1]    ***   
       GAMMA_ABCD           IGABCD         STORE       [  0]    ***   
       GAMMA_ABCI           IGABCI         STORE       [  0]    ***   
       GENBAS_1             IGNBS1              0               ***   
       GENBAS_2             IGNBS2              0               ***   
       GENBAS_3             IGNBS3              0               ***   
       GENBAS_4             IGNBS4              0               ***   
       GEO_CONV             ICONTL              5              H/bohr 
       GEO_MAXCYC           IOPTCY             50               ***   
       GEO_MAXSTEP          IMXSTP            300            millibohr
       GEO_METHOD           INR            SINGLE_POINT[  5]    ***   
       GIAO                 IGIAO          OFF         [  1]    ***   
       GIMIC                IGIMIC         OFF         [  0]    ***   
       GRID                 IGRID          OFF         [  0]    ***   
       GRID_ALGO            IGALGO         SERIAL      [  0]    ***   
       GUESS                IGUESS         MOREAD      [  0]    ***   
       HBAR                 IHBAR          ON          [  1]    ***   
       HESS_TYPE            IHESTP         SCF         [  0]    ***   
       HF2_FILE             IHF2Fl         USE         [  1]    ***   
       HFSTABILITY          ISTABL         OFF         [  0]    ***   
       INCORE               INCORE         OFF         [  0]    ***   
       INPUT_MRCC           IMRCC          ON          [  1]    ***   
       INTEGRALS            INTTYP         VMOL        [  1]    ***   
       JODA_PRINT           IJPRNT              0               ***   
       KEYWORD_OUT          IDMPKW         NO          [  0]    ***   
       LINDEP_TOL           ILINDP              8               ***   
       LINEQ_CONV           IZTACN          10D-  7           cycles  
       LINEQ_EXPOR          ILMAXD              5               ***   
       LINEQ_MAXCY          ILMAXC            100               ***   
       LINEQ_TYPE           ILTYPE         DIIS        [  1]    ***   
       LOCK_ORBOCC          ILOCOC         OFF         [  0]    ***   
       MEMORY_SIZE          IMEMSZ         *********           words  
       MEM_UNIT             IMEMU          GB          [  3]    ***   
       MRCC                 IMRCCC         OFF         [  0]    ***   
       MULTIPLICTY          IMULTP              1               ***   
       NACOUPLING           IVCOUP         OFF         [  0]    ***   
       NEGEVAL              IDIE           ABORT       [  0]    ***   
       NEWNORM              INEWNO         OFF         [  0]    ***   
       NON-HF               INONHF         OFF         [  0]    ***   
       NTOP_TAMP            ITOPT2             15               ***   
       NUC_MODEL            INUCMO         POINT       [  0]    ***   
       OCCUPATION           IOCCU   ESTIMATED BY SCF 
       OPEN-SHELL           IOPEN          SPIN-ORBITAL[  0]    ***   
       OPTVIB               IOPTVB         OFF         [  0]    ***   
       ORBITALS             IORBTP         STANDARD    [  0]    ***   
       PARALLEL             IPARAL         ON          [  1]    ***   
       PARA_INT             IPINTS         ON          [  1]    ***   
       PARA_PRINT           IPPRIN              0               ***   
       PERT_ORB             IPTORB         STANDARD    [  0]    ***   
       POINTS               IGRDFD              0               ***   
       PRINT                IPRNT               0               ***   
       PROPS                IPROPS         OFF         [  0]    ***   
       PROP_INTEGR          IINTYP         INTERNAL    [  0]    ***   
       PSI                  IPSI           OFF         [  0]    ***   
       QC_ALG               IQCALG         FLM         [  0]    ***   
       QC_LINALG            IQCLIN         TRIDIAG     [  2]    ***   
       QC_MAXCYC            IQCMAX          10D-100           cycles  
       QC_MAXSCFCY          IQCMSC          10D- 15           cycles  
       QC_RTRUST            IQCRTR          10D-  0           x 10-3  
       QC_SKIPSCF           IQCSKI         OFF         [  0]    ***   
       QC_START             IQCSTA          10D-  1             ***   
       QRHFGUESS            IQGUES         OFF         [  0]    ***   
       QUARTIC              IQUART         OFF         [  0]    ***   
       RAMAN_INT            IRAMIN         OFF         [  0]    ***   
       RAMAN_ORB            IRAMRE         UNRELAXED   [  0]    ***   
       RDO                  IRDOFM         OFF         [  0]    ***   
       REDUCE_REPR          REDREP         Ir          [  0]    ***   
       REFERENCE            IREFNC         RHF         [  0]    ***   
       RELATIVIST           IRELAT         OFF         [  0]    ***   
       RELAX_DENS           IRDENS         OFF         [  0]    ***   
       RESET_FLAGS          IRESET         OFF         [  0]    ***   
       RESTART_CC           ICCRES         OFF         [  0]    ***   
       ROT_EVEC             ROTVEC              0               ***   
       SAVE_INTS            ISVINT         OFF         [  0]    ***   
       SCALE_ON             ISTCRT              0               ***   
       SCF_CONV             ISCFCV          10D-  8             ***   
       SCF_DAMPING          IDAMP               0             x 10-3  
       SCF_EXPORDE          IRPPOR              6               ***   
       SCF_EXPSTAR          IRPPLS              8               ***   
       SCF_EXTRAPO          IRPP           ON          [  1]    ***   
       SCF_MAXCYC           ISCFCY            150              cycles 
       SCF_NOSTOP           ISCFST         OFF         [  0]    ***   
       SCF_PRINT            ISCFPR              0               ***   
       SCF_PROG             ISCFPR         SCF         [  0]    ***   
       SD_FIELD             IFINSD              0             x 10-6  
       SOPERT               IPERSO         OFF         [  0]    ***   
       SPHERICAL            IDFGHI         ON          [  1]    ***   
       SPINORBIT            ISOCAL         OFF         [  0]    ***   
       SPINROTATIO          ISRCON         OFF         [  0]    ***   
       SPIN_FLIP            ISPFLP         OFF         [  0]    ***   
       SPIN_ORBIT           ISPORB         OFF         [  0]    ***   
       SPIN_SCAL            ISCSMP         OFF         [  0]    ***   
       STEEPSCALE           ISTPSC              1000          x 10-3  
       SUBGROUP             ISUBGP         DEFAULT     [  0]    ***   
       SUBGRPAXIS           ISBXYZ         X           [  0]    ***   
       SYMMETRY             ISYM           ON          [  0]    ***   
       SYM_CHECK            ISYMCK         OVERRIDE    [  1]    ***   
       T3_EXTRAPOL          IT3EXT         OFF         [  0]    ***   
       T4_EXTRAPOL          IT4EXP         OFF         [  0]    ***   
       TAMP_SUM             IEVERY              5               ***   
       TESTSUITE            ITESTS         OFF         [  0]    ***   
       THERMOCH             ITHERM         OFF         [  0]    ***   
       TOL_CHOLESK          ITOLCH          10D-  4             ***   
       TRANGRAD             IRESRM         OFF         [  0]    ***   
       TRANS_INV            ITRAIN         USE         [  0]    ***   
       TREAT_PERT           ITREAT         SIMULTANEOUS[  0]    ***   
       TRIP_ALGORI          ITRALG         NORMAL      [  0]    ***   
       UIJ_THRESHO          IUIJTH              1               ***   
       UNITS                IUNITS         BOHR        [  1]    ***   
       UNOS                 IUNOS          OFF         [  0]    ***   
       UPDATE_HESS          IHUPDT         ON          [  1]    ***   
       VIBPHASE             ISETPH         STANDARD    [  0]    ***   
       VIBRATION            IVIB           NO          [  0]    ***   
       VIB_ALGORIT          IGEALG         STANDARD    [  0]    ***   
       VNATORB              IVNORB         OFF         [  0]    ***   
       VTRAN                IVTRAN         FULL/PARTIAL[  0]    ***   
       XFIELD               IXEFLD              0             x 10-6  
       XFORM_TOL            IXFTOL          10D- 11             ***   
       YFIELD               IYEFLD              0             x 10-6  
       ZFIELD               IZEFLD              0             x 10-6  
       ZSCALE_EXP           IZEXPS         OFF         [  0]    ***   
    -------------------------------------------------------------------
  @GETXYZ-I,     4 atoms read from ZMAT.
   Rotational constants (in cm-1): 
          6.3438946034             9.9707496147             9.9707496362
   Rotational constants (in MHz): 
     190185.2022875074        298915.5953860913        298915.5960318497
********************************************************************************
   The full molecular point group is C s .
   The largest Abelian subgroup of the full molecular point group is C s .
   The computational point group is C s .
********************************************************************************


 ----------------------------------------------------------------
         Coordinates used in calculation (QCOMP) 
 ----------------------------------------------------------------
 Z-matrix   Atomic            Coordinates (in bohr)
  Symbol    Number           X              Y              Z
 ----------------------------------------------------------------
     N         7         0.00000000     0.12804615     0.00000000
     H         1        -0.88580079    -0.59303935    -1.53425197
     H         1         1.77160157    -0.59303935     0.00000000
     H         1        -0.88580079    -0.59303935     1.53425197
 ----------------------------------------------------------------
 
   Interatomic distance matrix (Angstroms) 
 
                 N             H             H             H    
                [ 1]        [ 2]        [ 3]        [ 4]
  N    [ 1]     0.00000
  H    [ 2]     1.01217     0.00000
  H    [ 3]     1.01217     1.62378     0.00000
  H    [ 4]     1.01217     1.62378     1.62378     0.00000
 rotcon2
   Rotational constants (in cm-1): 
          9.9707496147             6.3438946034             9.9707496362
   Rotational constants (in MHz): 
     298915.5953860913        190185.2022875074        298915.5960318497
  There is   1 frozen-core orbital.
  There are   50 basis functions.
 @GEOPT-W, Archive file not created for single-point calculation.
 @CHECKOUT-I, Total execution time (CPU/WALL):        0.19/       1.59 seconds.
--executable xjoda finished with status     0 in        2.17 seconds (walltime).
 --invoking executable--
/home/CEISAM/blondel-a/soft/cfour2.1/cfour2.1-serial-mkl/bin/xvmol
 SERIAL VERSION OF MOLECULE STARTED
********************************************************************************
                    INPUT FROM MOL FILE
********************************************************************************
INTGRL        1    0    1    0    0    0    0    0    0                         
         *** CFOUR Program System (Release V0.1) ***                            
Ketene -GS                                                                      
    3    1 Z          0.10E-08              0    0                              
   9999.00      3.00                                                            
          7.00000000    1    3    1    1    1                                   
N #1   0.000000000813628   0.128046149817296   0.000000000000000                
   10    4                                                                      
   9046.00000000000       7.000000000000000E-004 -1.530000000000000E-004        
  0.000000000000000E+000  0.000000000000000E+000                                
   1357.00000000000       5.389000000000000E-003 -1.208000000000000E-003        
  0.000000000000000E+000  0.000000000000000E+000                                
   309.300000000000       2.740600000000000E-002 -5.992000000000000E-003        
  0.000000000000000E+000  0.000000000000000E+000                                
   87.7300000000000       0.103207000000000      -2.454400000000000E-002        
  0.000000000000000E+000  0.000000000000000E+000                                
   28.5600000000000       0.278723000000000      -6.745900000000001E-002        
  0.000000000000000E+000  0.000000000000000E+000                                
   10.2100000000000       0.448540000000000      -0.158078000000000             
  0.000000000000000E+000  0.000000000000000E+000                                
   3.83800000000000       0.278238000000000      -0.121831000000000             
  0.000000000000000E+000  0.000000000000000E+000                                
  0.746600000000000       1.544000000000000E-002  0.549003000000000             
  0.000000000000000E+000  0.000000000000000E+000                                
  0.224800000000000      -2.864000000000000E-003  0.578815000000000             
   1.00000000000000       0.000000000000000E+000                                
  6.124000000000000E-002  0.000000000000000E+000  0.000000000000000E+000        
  0.000000000000000E+000   1.00000000000000                                     
    5    3                                                                      
   13.5500000000000       3.991900000000000E-002  0.000000000000000E+000        
  0.000000000000000E+000                                                        
   2.91700000000000       0.217169000000000       0.000000000000000E+000        
  0.000000000000000E+000                                                        
  0.797300000000000       0.510319000000000       0.000000000000000E+000        
  0.000000000000000E+000                                                        
  0.218500000000000       0.462214000000000        1.00000000000000             
  0.000000000000000E+000                                                        
  5.611000000000000E-002  0.000000000000000E+000  0.000000000000000E+000        
   1.00000000000000                                                             
    2    2                                                                      
  0.817000000000000        1.00000000000000       0.000000000000000E+000        
  0.230000000000000       0.000000000000000E+000   1.00000000000000             
          1.00000000    1    2    1    1                                        
H #2  -0.885800790434946  -0.593039348648921  -1.534251970000000                
    5    3                                                                      
   13.0100000000000       1.968500000000000E-002  0.000000000000000E+000        
  0.000000000000000E+000                                                        
   1.96200000000000       0.137977000000000       0.000000000000000E+000        
  0.000000000000000E+000                                                        
  0.444600000000000       0.478148000000000       0.000000000000000E+000        
  0.000000000000000E+000                                                        
  0.122000000000000       0.501240000000000        1.00000000000000             
  0.000000000000000E+000                                                        
  2.974000000000000E-002  0.000000000000000E+000  0.000000000000000E+000        
   1.00000000000000                                                             
    2    2                                                                      
  0.727000000000000        1.00000000000000       0.000000000000000E+000        
  0.141000000000000       0.000000000000000E+000   1.00000000000000             
          1.00000000    1    2    1    1                                        
H #3   1.771601569565054  -0.593039353250269   0.000000000000000                
    5    3                                                                      
   13.0100000000000       1.968500000000000E-002  0.000000000000000E+000        
  0.000000000000000E+000                                                        
   1.96200000000000       0.137977000000000       0.000000000000000E+000        
  0.000000000000000E+000                                                        
  0.444600000000000       0.478148000000000       0.000000000000000E+000        
  0.000000000000000E+000                                                        
  0.122000000000000       0.501240000000000        1.00000000000000             
  0.000000000000000E+000                                                        
  2.974000000000000E-002  0.000000000000000E+000  0.000000000000000E+000        
   1.00000000000000                                                             
    2    2                                                                      
  0.727000000000000        1.00000000000000       0.000000000000000E+000        
  0.141000000000000       0.000000000000000E+000   1.00000000000000             
FINISH                                                                          
 
********************************************************************************
 ONE- AND TWO-ELECTRON INTEGRALS OVER SYMMETRY-ADAPTED AOS ARE CALCULATED.

  SPHERICAL HARMONICS ARE USED.
  
  INTEGRALS LESS THAN  0.10E-13 ARE NEGLECTED.

  NUCLEAR REPULSION ENERGY :   11.9567463556 A.U.
  @MOLECU-I, ONE ELECTRON INTEGRALS (CPU/WALL):        0.02/       0.05 SECONDS.
  @TWOEL-I,     145219 INTEGRALS OF SYMMETRY TYPE  I I I I
  @TWOEL-I,     159072 INTEGRALS OF SYMMETRY TYPE  I J I J
  @TWOEL-I,      86042 INTEGRALS OF SYMMETRY TYPE  I I J J
  @TWOEL-I, TOTAL NUMBER OF 2-E INTEGRALS     390333.
  @MOLECU-I, TWO ELECTRON INTEGRALS (CPU/WALL):        0.69/       0.20 SECONDS.
 @CHECKOUT-I, Total execution time (CPU/WALL):        0.75/       0.28 seconds.

Running with 20 threads/proc

--executable xvmol finished with status     0 in        0.83 seconds (walltime).
 --invoking executable--
/home/CEISAM/blondel-a/soft/cfour2.1/cfour2.1-serial-mkl/bin/xvmol2ja
 @GETMEM-I,  Allocated  238418 MB of main memory.
 @CHECKOUT-I, Total execution time (CPU/WALL):        0.09/       0.05 seconds.
--executable xvmol2ja finished with status     0 in        0.67 seconds (walltime).
 --invoking executable--
/home/CEISAM/blondel-a/soft/cfour2.1/cfour2.1-serial-mkl/bin/xvscf
  There are   50 functions in the AO basis.

  There are 2 irreducible representations.

       Irrep        # of functions
         1                 32
         2                 18


  Parameters for SCF calculation: 
        SCF reference function:  RHF  
  Maximum number of iterations:  150
     Full symmetry point group: C s 
     Computational point group: C s 
        Initial density matrix: MOREAD                 
     SCF convergence tolerance: 10**(- 8)
  DIIS convergence acceleration:  ON
          Latest start for DIIS:   8
                     DIIS order:   6

  Memory information:     138492 words required.
  Fock matrices are constructed from AO integral file.
 @GETMEM-I,  Allocated       1 MB of main memory.
  Initialization and symmetry analysis required      0.003 seconds.

  @INITGES-I, Occupancies from core Hamiltonian:

          Alpha population by irrep:   4    1
           Beta population by irrep:   4    1


 total no. of electrons in initial guess :  0.000000000000000E+000
  --------------------------------------------------------------------
  Iteration         Total Energy            Largest Density Difference
  --------------------------------------------------------------------
       0            11.956746355615010              0.0000000000D+00
   current occupation vector 
     4  1
     4  1
       1           -47.965215941378702              0.1178891262D+02
   current occupation vector 
     4  1
     4  1
       2           -47.041245121896452              0.2037337318D+02
   current occupation vector 
     4  1
     4  1
       3           -52.604821589231975              0.2038769395D+02
   current occupation vector 
     4  1
     4  1
       4           -52.140897978453211              0.1003138167D+02
   current occupation vector 
     4  1
     4  1
       5           -54.195277142737922              0.1003456608D+02
   current occupation vector 
     4  1
     4  1
       6           -53.862684009534874              0.8584881856D+01
   current occupation vector 
     4  1
     4  1
       7           -54.967161118215657              0.8583331541D+01
   current occupation vector 
     4  1
     4  1
       8           -54.711287610573578              0.3773329986D+01
   current occupation vector 
     4  1
     4  1
       9           -56.196999929761745              0.3760958474D+01
   current occupation vector 
     4  1
     4  1
      10           -56.205089997335989              0.7248458586D-01
   current occupation vector 
     4  1
     4  1
      11           -56.205380825196869              0.1174100604D-01
   current occupation vector 
     4  1
     4  1
      12           -56.205394396577120              0.2622447649D-02
   current occupation vector 
     4  1
     4  1
      13           -56.205395489459093              0.1474660441D-02
   current occupation vector 
     4  1
     4  1
      14           -56.205395504319256              0.1595633720D-03
   current occupation vector 
     4  1
     4  1
      15           -56.205395505131804              0.2864509656D-04
   current occupation vector 
     4  1
     4  1
      16           -56.205395505215336              0.2093322207D-04
   current occupation vector 
     4  1
     4  1
      17           -56.205395505216060              0.2078422540D-05
   current occupation vector 
     4  1
     4  1
      18           -56.205395505216032              0.2122536913D-06
   current occupation vector 
     4  1
     4  1
      19           -56.205395505216259              0.6306616904D-07
   current occupation vector 
     4  1
     4  1
      20           -56.205395505216387              0.1227177485D-07
   current occupation vector 
     4  1
     4  1

  SCF has converged.

 Density matrix saved to file den.dat
 total electron number:   10.0000000000000     
     E(SCF)=       -56.205395505216345              0.2881778427D-08

  Eigenvector printing suppressed.

 @PUTMOS-I, Writing converged MOs to NEWMOS. 
 @PUTMOS-I, Symmetry   1 Full Blocks  8 Partial Blocksize   0
 @PUTMOS-I, Symmetry   2 Full Blocks  4 Partial Blocksize   2
 @PUTFOCK-I, Writing converged Fock matrix to NEWFOCK. 
 @PUTFOCK-I, Symmetry   1 Full Blocks  8 Partial Blocksize   0
 @PUTFOCK-I, Symmetry   2 Full Blocks  4 Partial Blocksize   2


 
  ORBITAL EIGENVALUES (ALPHA)  (1H = 27.2113834 eV)

       MO #        E(hartree)               E(eV)           FULLSYM    COMPSYM
       ----   --------------------   --------------------   -------   ---------
    1     1         -15.5516666855        -423.1823646894     A'        A'  (1)
    2     2          -1.1442717824         -31.1372181840     A'        A'  (1)
    3     3          -0.6286947072         -17.1076527194    E          A'  (1)
    4    33          -0.6286947060         -17.1076526867    E          A'' (2)
    5     4          -0.4290166103         -11.6741354676     A'        A'  (1)
  +++++++++++++++++++++++++++++++++++++++++++++++++++++++++++++++++++++++++++++
    6     5           0.0358474249           0.9754580215     A'        A'  (1)
    7     6           0.0598457859           1.6284866254    E          A'  (1)
    8    34           0.0598457859           1.6284866259    E          A'' (2)
    9     7           0.1500993886           4.0844120105     A'        A'  (1)
   10     8           0.1973541830           5.3702803401     A'        A'  (1)
   11    35           0.2017896483           5.4909754871    E          A'' (2)
   12     9           0.2017896483           5.4909754874    E          A'  (1)
   13    36           0.2940042973           8.0002636554    E          A'' (2)
   14    10           0.2940042979           8.0002636706    E          A'  (1)
   15    11           0.3395990500           9.2409599516     A'        A'  (1)
   16    12           0.3436213761           9.3504130104    E          A'  (1)
   17    37           0.3436213762           9.3504130134    E          A'' (2)
   18    13           0.4729617900          12.8699446017     A'        A'  (1)
   19    38           0.5272681361          14.3476954055     A''       A'' (2)
   20    39           0.5339182925          14.5286553617    E          A'' (2)
   21    14           0.5339182925          14.5286553623    E          A'  (1)
   22    15           0.6161529408          16.7663739049     A'        A'  (1)
   23    16           0.6392932919          17.3960548707    E          A'  (1)
   24    40           0.6392932919          17.3960548720    E          A'' (2)
   25    41           0.7116370787          19.3646293903    E          A'' (2)
   26    17           0.7116370798          19.3646294191    E          A'  (1)
   27    18           0.8383653257          22.8130803065     A'        A'  (1)
   28    19           0.9178370659          24.9756162998    E          A'  (1)
   29    42           0.9178370660          24.9756163011    E          A'' (2)
   30    20           1.1398483837          31.0168513861     A'        A'  (1)
   31    43           1.2178409027          33.1391357239    E          A'' (2)
   32    21           1.2178409037          33.1391357504    E          A'  (1)
   33    22           1.3624210173          37.0733606546     A'        A'  (1)
   34    23           1.8135527545          49.3492793191    E          A'  (1)
   35    44           1.8135527550          49.3492793315    E          A'' (2)
   36    45           1.9455143371          52.9401365376     A''       A'' (2)
   37    46           2.0645880871          56.1802980025    E          A'' (2)
   38    24           2.0645880875          56.1802980110    E          A'  (1)
   39    25           2.0952081983          57.0135135858     A'        A'  (1)
   40    26           2.3339330831          63.5095479536    E          A'  (1)
   41    47           2.3339330840          63.5095479784    E          A'' (2)
   42    27           2.3750952895          64.6296285343     A'        A'  (1)
   43    48           2.4138561446          65.6843650231    E          A'' (2)
   44    28           2.4138561496          65.6843651594    E          A'  (1)
   45    29           2.6553495279          72.2557340657     A'        A'  (1)
   46    30           2.9086123306          79.1473652899    E          A'  (1)
   47    49           2.9086123316          79.1473653161    E          A'' (2)
   48    31           3.1212058281          84.9323284579     A'        A'  (1)
   49    50           3.5297340320          96.0489460452    E          A'' (2)
   50    32           3.5297340364          96.0489461633    E          A'  (1)


  VSCF finished.

 @CHECKOUT-I, Total execution time (CPU/WALL):        3.82/       0.44 seconds.
--executable xvscf finished with status     0 in        0.98 seconds (walltime).
 --invoking executable--
/home/CEISAM/blondel-a/soft/cfour2.1/cfour2.1-serial-mkl/bin/xvtran
 @GETMEM-I,  Allocated  238418 MB of main memory.
  Full RHF integral transformation
  The following   1 MOs will be dropped:
    1
  There are  49 active molecular orbitals.
  Transformation of IIII integrals :
  1 pass through the AO integral file was required.
      145219 AO integrals were read.
      137962 MO integrals were written to HF2.
  Transformation of IIJJ integrals :
  1 pass through the AO integral file was required.
       86042 AO integrals were read.
       84816 MO integrals were written to HF2.
  Transformation of IJIJ integrals :
  1 pass through the AO integral file was required.
      159072 AO integrals were read.
      155960 MO integrals were written to HF2.
  Summary of active molecular orbitals: 
------------------------------------------------------------------------
 
  Index      Eigenvalue    Symmetry    Index      Eigenvalue    Symmetry
------------------------------------------------------------------------
     1        -1.1442718        1        26         2.3339331        1
     2        -0.6286947        1        27         2.3750953        1
     3        -0.4290166        1        28         2.4138561        1
     4        -0.6286947        2        29         2.6553495        1
     5         0.0358474        1        30         2.9086123        1
     6         0.0598458        1        31         3.1212058        1
     7         0.1500994        1        32         3.5297340        1
     8         0.1973542        1        33         0.0598458        2
     9         0.2017896        1        34         0.2017896        2
    10         0.2940043        1        35         0.2940043        2
    11         0.3395990        1        36         0.3436214        2
    12         0.3436214        1        37         0.5272681        2
    13         0.4729618        1        38         0.5339183        2
    14         0.5339183        1        39         0.6392933        2
    15         0.6161529        1        40         0.7116371        2
    16         0.6392933        1        41         0.9178371        2
    17         0.7116371        1        42         1.2178409        2
    18         0.8383653        1        43         1.8135528        2
    19         0.9178371        1        44         1.9455143        2
    20         1.1398484        1        45         2.0645881        2
    21         1.2178409        1        46         2.3339331        2
    22         1.3624210        1        47         2.4138561        2
    23         1.8135528        1        48         2.9086123        2
    24         2.0645881        1        49         3.5297340        2
    25         2.0952082        1
------------------------------------------------------------------------
  -1.14427178237456      -0.628694707206685      -0.429016610289548     
 -0.628694706005512       3.584742485069359E-002  5.984578591465763E-002
  0.150099388568935       0.197354183033406       0.201789648349170     
  0.294004297869569       0.339599049992430       0.343621376134009     
  0.472961790017076       0.533918292528592       0.616152940791199     
  0.639293291891676       0.711637079764302       0.838365325686840     
  0.917837065932562        1.13984838367726        1.21784090368734     
   1.36242101732490        1.81355275451170        2.06458808746174     
   2.09520819826460        2.33393308307789        2.37509528950574     
   2.41385614960670        2.65534952793753        2.90861233059951     
   3.12120582806751        3.52973403635644       5.984578593402800E-002
  0.201789648339996       0.294004297311053       0.343621376244796     
  0.527268136082170       0.533918292507202       0.639293291938461     
  0.711637078704367       0.917837065978763        1.21784090271089     
   1.81355275496630        1.94551433712257        2.06458808714906     
   2.33393308398924        2.41385614459666        2.90861233156253     
   3.52973403201578     
 @CHECKOUT-I, Total execution time (CPU/WALL):        2.74/       0.30 seconds.
--executable xvtran finished with status     0 in        0.84 seconds (walltime).
 --invoking executable--
/home/CEISAM/blondel-a/soft/cfour2.1/cfour2.1-serial-mkl/bin/xintprc
 @GETMEM-I,  Allocated  238418 MB of main memory.
  @GMOIAA-I, Processing MO integrals for spin case AA.
  @GMOIAA-I, Generation of integral list completed.
                      TYPE                NUMBER
                      ----               --------
                      PPPP                270045
                      PPPH                 94063
                      PPHH                  8311
                      PHPH                  5341
                      PHHH                   944
                      HHHH                    34

                     TOTAL                378738

  @FORMT2-I, Second-order MP correlation energies:
            ------------------------------------------------
            E(SCF)                  =    -56.205395505216 a.u.
            E2(AA)                  =     -0.023059404755 a.u.
            E2(AB)                  =     -0.153228113185 a.u.
            E2(TOT)                 =     -0.199346922695 a.u.
            Total MP2 energy        =    -56.404742427912 a.u.
            ------------------------------------------------
   Largest T2 amplitudes for spin case AB:
       _       _                 _       _                 _       _
   i   j   a   b             i   j   a   b             i   j   a   b
-----------------------------------------------------------------------------
[  3   3  22  22]-0.02748 [  3   3  13  13]-0.02085 [  4   4  35  35]-0.02056
[  2   2  10  10]-0.02056 [  4   4  40  40]-0.01989 [  2   2  17  17]-0.01989
[  3   3  18  18]-0.01877 [  3   3  22  13]-0.01752 [  3   3  13  22]-0.01752
[  3   3  13   7] 0.01639 [  3   3   7  13] 0.01639 [  4   4  40  35]-0.01585
[  4   4  35  40]-0.01585 [  2   2  17  10]-0.01585 [  2   2  10  17]-0.01585
-----------------------------------------------------------------------------
   Norm of T2AB vector (    16442 symmetry allowed elements):  0.2173274739.
-----------------------------------------------------------------------------
 @CHECKOUT-I, Total execution time (CPU/WALL):        0.68/       0.20 seconds.
--executable xintprc finished with status     0 in        0.74 seconds (walltime).
  calling xvcc 
 --invoking executable--
/home/CEISAM/blondel-a/soft/cfour2.1/cfour2.1-serial-mkl/bin/xvcc
 @GETMEM-I,  Allocated  238418 MB of main memory.
   CC2 energy will be calculated.
   The total correlation energy is -0.199346922695 a.u.
   The total correlation energy is -0.199333915375 a.u.
  Convergence information after     1 iterations: 
  Largest element of residual vector :  0.12274449E-01.
  Largest element of DIIS residual   :  0.12274449E-01.
   The total correlation energy is -0.200385066550 a.u.
  Convergence information after     2 iterations: 
  Largest element of residual vector :  0.30955921E-02.
  Largest element of DIIS residual   : -0.18943331E-02.
   The total correlation energy is -0.200619758309 a.u.
  Convergence information after     3 iterations: 
  Largest element of residual vector :  0.27236493E-02.
  Largest element of DIIS residual   :  0.12672621E-02.
   The total correlation energy is -0.200774585328 a.u.
  Convergence information after     4 iterations: 
  Largest element of residual vector :  0.41619073E-03.
  Largest element of DIIS residual   : -0.13965667E-03.
   The total correlation energy is -0.200779067001 a.u.
  Convergence information after     5 iterations: 
  Largest element of residual vector :  0.18928392E-03.
  Largest element of DIIS residual   : -0.11217591E-03.
   The total correlation energy is -0.200779455055 a.u.
  Convergence information after     6 iterations: 
  Largest element of residual vector : -0.48911989E-04.
  Largest element of DIIS residual   :  0.28467842E-04.
   The total correlation energy is -0.200779964407 a.u.
  Convergence information after     7 iterations: 
  Largest element of residual vector : -0.33610701E-04.
  Largest element of DIIS residual   : -0.18494895E-04.
   The total correlation energy is -0.200779941916 a.u.
  Convergence information after     8 iterations: 
  Largest element of residual vector : -0.61030270E-05.
  Largest element of DIIS residual   : -0.42750386E-05.
   The total correlation energy is -0.200780063059 a.u.
  Convergence information after     9 iterations: 
  Largest element of residual vector : -0.31189748E-05.
  Largest element of DIIS residual   : -0.11338164E-05.
   The total correlation energy is -0.200780087589 a.u.
  Convergence information after    10 iterations: 
  Largest element of residual vector :  0.92511873E-06.
  Largest element of DIIS residual   :  0.58572440E-06.
   The total correlation energy is -0.200780113017 a.u.
  Convergence information after    11 iterations: 
  Largest element of residual vector :  0.26852518E-06.
  Largest element of DIIS residual   : -0.12891336E-06.
   The total correlation energy is -0.200780125115 a.u.
  Convergence information after    12 iterations: 
  Largest element of residual vector :  0.17123169E-06.
  Largest element of DIIS residual   : -0.48207535E-07.
   The total correlation energy is -0.200780130481 a.u.
  Convergence information after    13 iterations: 
  Largest element of residual vector :  0.49248161E-07.
  Largest element of DIIS residual   :  0.11617848E-07.
  Amplitude equations converged in    13iterations.
   The total correlation energy is -0.200780131568 a.u.
   The CC iterations have converged.

   Largest T1 amplitudes for spin case AA:
   i       a                 i       a                 i       a    
-----------------------------------------------------------------------------
[  3       7    ] 0.02077 [  3      13    ]-0.01311 [  3      11    ] 0.00681
[  4      47    ] 0.00662 [  2      28    ] 0.00662 [  3       5    ]-0.00492
[  3       8    ]-0.00482 [  4      40    ] 0.00473 [  2      17    ] 0.00473
[  2       9    ]-0.00373 [  4      34    ]-0.00373 [  3      18    ]-0.00332
[  4      42    ] 0.00313 [  2      21    ] 0.00313 [  2       6    ]-0.00303
-----------------------------------------------------------------------------
   Norm of T1AA vector (      101 symmetry allowed elements):  0.0313752417.
-----------------------------------------------------------------------------
   Largest T2 amplitudes for spin case AB:
       _       _                 _       _                 _       _
   i   j   a   b             i   j   a   b             i   j   a   b
-----------------------------------------------------------------------------
[  3   3  22  22]-0.02694 [  3   3  13  13]-0.02208 [  4   4  35  35]-0.02090
[  2   2  10  10]-0.02090 [  4   4  40  40]-0.01992 [  2   2  17  17]-0.01992
[  3   3  18  18]-0.01863 [  3   3  13   7] 0.01827 [  3   3   7  13] 0.01827
[  3   3   7   7]-0.01793 [  3   3  22  13]-0.01769 [  3   3  13  22]-0.01769
[  4   4  40  35]-0.01593 [  4   4  35  40]-0.01593 [  2   2  17  10]-0.01593
-----------------------------------------------------------------------------
   Norm of T2AB vector (    16442 symmetry allowed elements):  0.2202359088.
-----------------------------------------------------------------------------
       Summary of iterative solution of CC equations 
      -----------------------------------------------------------
                       Correlation           Total
       Iteration         Energy              Energy
      -----------------------------------------------------------
            0        -0.199346922695     -56.404742427912  DIIS 
            1        -0.199333915375     -56.404729420592  DIIS 
            2        -0.200385066550     -56.405780571766  DIIS 
            3        -0.200619758309     -56.406015263526  DIIS 
            4        -0.200774585328     -56.406170090544  DIIS 
            5        -0.200779067001     -56.406174572218  DIIS 
            6        -0.200779455055     -56.406174960271  DIIS 
            7        -0.200779964407     -56.406175469624  DIIS 
            8        -0.200779941916     -56.406175447133  DIIS 
            9        -0.200780063059     -56.406175568275  DIIS 
           10        -0.200780087589     -56.406175592805  DIIS 
           11        -0.200780113017     -56.406175618233  DIIS 
           12        -0.200780125115     -56.406175630332  DIIS 
           13        -0.200780131568     -56.406175636784  DIIS 
      -----------------------------------------------------------
      A miracle has come to pass. The CC iterations have converged.
      The reference energy is       -56.20539550521634 a.u.
      The correlation energy is      -0.20078013156789 a.u.
      The total energy is           -56.40617563678423 a.u.
 @CHECKOUT-I, Total execution time (CPU/WALL):        7.72/       0.45 seconds.
--executable xvcc finished with status     0 in        0.99 seconds (walltime).
 --invoking executable--
/home/CEISAM/blondel-a/soft/cfour2.1/cfour2.1-serial-mkl/bin/xlambda
 @GETMEM-I,  Allocated  238418 MB of main memory.
 Hbar is calculated for a CC2 wave function.
 Calculation of Hbar completed.
 @CHECKOUT-I, Total execution time (CPU/WALL):        1.48/       0.26 seconds.
--executable xlambda finished with status     0 in        0.81 seconds (walltime).
 --invoking executable--
/home/CEISAM/blondel-a/soft/cfour2.1/cfour2.1-serial-mkl/bin/xvee
 @GETMEM-I,  Allocated  238418 MB of main memory.
  cc2 and ccprog  T                     0
  EOMEE-CC2 excitation energies will be evaluated.
  @SETMET-I, VPROP property integrals are used.
  @SETMET-I, A total of  10 target states will be studied.
  Summary of active alpha molecular orbitals:
------------------------------------------------------------------------------
Orbital      Sym   Eigenvalue  <xx>     <yy>     <zz>     <xy>     <xz>     <yz>
        SCF
  #  position
------------------------------------------------------------------------------
   1      2    1      -1.1443   0.000    0.000    0.000    0.000    0.000    0.000
   2      3    1      -0.6287   0.000    0.000    0.000    0.000    0.000    0.000
   3      5    1      -0.4290   0.000    0.000    0.000    0.000    0.000    0.000
   4      4    2      -0.6287   0.000    0.000    0.000    0.000    0.000    0.000
   5      6    1       0.0358   0.000    0.000    0.000    0.000    0.000    0.000
   6      7    1       0.0598   0.000    0.000    0.000    0.000    0.000    0.000
   7      9    1       0.1501   0.000    0.000    0.000    0.000    0.000    0.000
   8     10    1       0.1974   0.000    0.000    0.000    0.000    0.000    0.000
   9     12    1       0.2018   0.000    0.000    0.000    0.000    0.000    0.000
  10     14    1       0.2940   0.000    0.000    0.000    0.000    0.000    0.000
  11     15    1       0.3396   0.000    0.000    0.000    0.000    0.000    0.000
  12     16    1       0.3436   0.000    0.000    0.000    0.000    0.000    0.000
  13     18    1       0.4730   0.000    0.000    0.000    0.000    0.000    0.000
  14     21    1       0.5339   0.000    0.000    0.000    0.000    0.000    0.000
  15     22    1       0.6162   0.000    0.000    0.000    0.000    0.000    0.000
  16     23    1       0.6393   0.000    0.000    0.000    0.000    0.000    0.000
  17     26    1       0.7116   0.000    0.000    0.000    0.000    0.000    0.000
  18     27    1       0.8384   0.000    0.000    0.000    0.000    0.000    0.000
  19     28    1       0.9178   0.000    0.000    0.000    0.000    0.000    0.000
  20     30    1       1.1398   0.000    0.000    0.000    0.000    0.000    0.000
  21     32    1       1.2178   0.000    0.000    0.000    0.000    0.000    0.000
  22     33    1       1.3624   0.000    0.000    0.000    0.000    0.000    0.000
  23     34    1       1.8136   0.000    0.000    0.000    0.000    0.000    0.000
  24     38    1       2.0646   0.000    0.000    0.000    0.000    0.000    0.000
  25     39    1       2.0952   0.000    0.000    0.000    0.000    0.000    0.000
  26     40    1       2.3339   0.000    0.000    0.000    0.000    0.000    0.000
  27     42    1       2.3751   0.000    0.000    0.000    0.000    0.000    0.000
  28     44    1       2.4139   0.000    0.000    0.000    0.000    0.000    0.000
  29     45    1       2.6553   0.000    0.000    0.000    0.000    0.000    0.000
  30     46    1       2.9086   0.000    0.000    0.000    0.000    0.000    0.000
  31     48    1       3.1212   0.000    0.000    0.000    0.000    0.000    0.000
  32     50    1       3.5297   0.000    0.000    0.000    0.000    0.000    0.000
  33      8    2       0.0598   0.000    0.000    0.000    0.000    0.000    0.000
  34     11    2       0.2018   0.000    0.000    0.000    0.000    0.000    0.000
  35     13    2       0.2940   0.000    0.000    0.000    0.000    0.000    0.000
  36     17    2       0.3436   0.000    0.000    0.000    0.000    0.000    0.000
  37     19    2       0.5273   0.000    0.000    0.000    0.000    0.000    0.000
  38     20    2       0.5339   0.000    0.000    0.000    0.000    0.000    0.000
  39     24    2       0.6393   0.000    0.000    0.000    0.000    0.000    0.000
  40     25    2       0.7116   0.000    0.000    0.000    0.000    0.000    0.000
  41     29    2       0.9178   0.000    0.000    0.000    0.000    0.000    0.000
  42     31    2       1.2178   0.000    0.000    0.000    0.000    0.000    0.000
  43     35    2       1.8136   0.000    0.000    0.000    0.000    0.000    0.000
  44     36    2       1.9455   0.000    0.000    0.000    0.000    0.000    0.000
  45     37    2       2.0646   0.000    0.000    0.000    0.000    0.000    0.000
  46     41    2       2.3339   0.000    0.000    0.000    0.000    0.000    0.000
  47     43    2       2.4139   0.000    0.000    0.000    0.000    0.000    0.000
  48     47    2       2.9086   0.000    0.000    0.000    0.000    0.000    0.000
  49     49    2       3.5297   0.000    0.000    0.000    0.000    0.000    0.000
------------------------------------------------------------------------------
  @DRVTDA-I, Roots obtained by Davidson method.
  calling tda davidson                       8                     1
  after tda davidson                      8                     8
                     5                     5
  kroot is                      5
  calling tda davidson                       8                     2
  after tda davidson                      8                     8
                     5                     5
  kroot is                      5
__________________________________________________________________________
    Tamm-Dancoff (CIS) Excitation Energies and Transition Moments

                Excitation         Transition Dipole         Oscillator
 Root  Symmetry  Energy         x           y           z     Strength
__________________________________________________________________________
   1       1    0.27317      0.0000      0.0000      0.0000  .00000000D+00
__________________________________________________________________________
 
__________________________________________________________________________
  TDA excitation ergy:             0.273167881783 a.u.    7.4333 eV
  Total TDA electronic energy:   -55.932227623434 a.u.
 
  Dominant contributions: 
  SCF eigenvalue ordering used in list below. 
--------------------------------------------------------------------------------
    I    j    A    b
--------------------------------------------------------------------------------
    5    0    6    0  -0.8889595914 AA  
    5    0   10    0   0.4027098984 AA  
    5    0    9    0   0.1614446465 AA  
    5    0   15    0  -0.0927640039 AA  
    5    0   22    0  -0.0926895337 AA  
    5    0   18    0  -0.0471795402 AA  
    5    0   30    0   0.0252329183 AA  
    4    0   13    0   0.0138216096 AA  
    3    0   14    0   0.0138216093 AA  
    5    0   42    0   0.0114729593 AA  
    2    0    9    0   0.0113503020 AA  
    2    0   10    0  -0.0084293508 AA  
    3    0   12    0   0.0070587465 AA  
    4    0   11    0   0.0070587464 AA  
    5    0   39    0   0.0066032623 AA  
--------------------------------------------------------------------------------
   2       1    0.32753      0.0000      0.0000      0.0000  .00000000D+00
__________________________________________________________________________
 
__________________________________________________________________________
  TDA excitation ergy:             0.327525348815 a.u.    8.9124 eV
  Total TDA electronic energy:   -55.877870156401 a.u.
 
  Dominant contributions: 
  SCF eigenvalue ordering used in list below. 
--------------------------------------------------------------------------------
    I    j    A    b
--------------------------------------------------------------------------------
    5    0    7    0  -0.9024961174 AA  
    5    0   12    0  -0.3015149009 AA  
    5    0   14    0  -0.2786079928 AA  
    5    0   21    0  -0.0692072873 AA  
    5    0   23    0  -0.0673006361 AA  
    5    0   26    0  -0.0534766425 AA  
    5    0   16    0  -0.0479454592 AA  
    5    0   32    0  -0.0406773876 AA  
    2    0   16    0  -0.0101908218 AA  
    5    0   34    0  -0.0095977059 AA  
    5    0   44    0  -0.0095787623 AA  
    4    0   25    0   0.0080571685 AA  
    3    0   26    0  -0.0080571684 AA  
    2    0   14    0  -0.0068921843 AA  
    4    0   13    0   0.0057050190 AA  
--------------------------------------------------------------------------------
   3       1    0.38442      0.0000      0.0000      0.0000  .00000000D+00
__________________________________________________________________________
 
__________________________________________________________________________
  TDA excitation ergy:             0.384418150346 a.u.   10.4605 eV
  Total TDA electronic energy:   -55.820977354871 a.u.
 
  Dominant contributions: 
  SCF eigenvalue ordering used in list below. 
--------------------------------------------------------------------------------
    I    j    A    b
--------------------------------------------------------------------------------
    5    0    9    0  -0.9431820662 AA  
    5    0   10    0   0.1915024758 AA  
    5    0   18    0   0.1306891321 AA  
    5    0    6    0  -0.1054380199 AA  
    4    0   13    0  -0.0961742445 AA  
    3    0   14    0  -0.0961742430 AA  
    4    0    8    0  -0.0706750245 AA  
    3    0    7    0  -0.0706750234 AA  
    4    0   11    0  -0.0449468118 AA  
    3    0   12    0  -0.0449468117 AA  
    5    0   15    0   0.0431101454 AA  
    4    0   20    0  -0.0324936440 AA  
    3    0   21    0  -0.0324936439 AA  
    4    0   25    0  -0.0303532097 AA  
    3    0   26    0  -0.0303532094 AA  
--------------------------------------------------------------------------------
   4       1    0.41533      0.0000      0.0000      0.0000  .00000000D+00
__________________________________________________________________________
 
__________________________________________________________________________
  TDA excitation ergy:             0.415334606809 a.u.   11.3018 eV
  Total TDA electronic energy:   -55.790060898408 a.u.
 
  Dominant contributions: 
  SCF eigenvalue ordering used in list below. 
--------------------------------------------------------------------------------
    I    j    A    b
--------------------------------------------------------------------------------
    5    0   10    0   0.8543667487 AA  
    5    0    6    0   0.4447437974 AA  
    5    0   15    0  -0.1811176429 AA  
    5    0   22    0  -0.1457869971 AA  
    5    0    9    0   0.1098360743 AA  
    5    0   18    0  -0.0568818712 AA  
    5    0   30    0   0.0414400444 AA  
    3    0   14    0  -0.0145689385 AA  
    4    0   13    0  -0.0145689368 AA  
    5    0   42    0   0.0110542300 AA  
    2    0   18    0  -0.0090184644 AA  
    4    0    8    0  -0.0080518905 AA  
    3    0    7    0  -0.0080518902 AA  
    5    0   39    0   0.0066478574 AA  
    5    0   48    0  -0.0063458355 AA  
--------------------------------------------------------------------------------
   5       1    0.42371      0.0000      0.0000      0.0000  .00000000D+00
__________________________________________________________________________
 
__________________________________________________________________________
  TDA excitation ergy:             0.423707380575 a.u.   11.5297 eV
  Total TDA electronic energy:   -55.781688124641 a.u.
 
  Dominant contributions: 
  SCF eigenvalue ordering used in list below. 
--------------------------------------------------------------------------------
    I    j    A    b
--------------------------------------------------------------------------------
    5    0   12    0  -0.7226062324 AA  
    5    0   14    0   0.6602801743 AA  
    5    0   26    0   0.1535222759 AA  
    5    0   21    0  -0.0755864931 AA  
    5    0   16    0  -0.0534205192 AA  
    5    0    7    0   0.0364823736 AA  
    5    0   28    0  -0.0327092537 AA  
    3    0   14    0   0.0317803774 AA  
    4    0   13    0  -0.0317803058 AA  
    3    0    6    0  -0.0271229130 AA  
    3    0   15    0  -0.0246401156 AA  
    3    0    9    0   0.0216996618 AA  
    3    0   26    0   0.0204207133 AA  
    4    0   25    0  -0.0204206932 AA  
    5    0   23    0  -0.0189180077 AA  
--------------------------------------------------------------------------------
   1       2    0.32753      0.0000      0.0000      0.0000  .00000000D+00
__________________________________________________________________________
 
__________________________________________________________________________
  TDA excitation ergy:             0.327525348706 a.u.    8.9124 eV
  Total TDA electronic energy:   -55.877870156510 a.u.
 
  Dominant contributions: 
  SCF eigenvalue ordering used in list below. 
--------------------------------------------------------------------------------
    I    j    A    b
--------------------------------------------------------------------------------
    5    0    8    0  -0.9024961147 AA  
    5    0   11    0  -0.3015149902 AA  
    5    0   13    0  -0.2786078638 AA  
    5    0   20    0  -0.0692075165 AA  
    5    0   24    0  -0.0673007214 AA  
    5    0   25    0  -0.0534765996 AA  
    5    0   17    0  -0.0479454965 AA  
    5    0   31    0  -0.0406772472 AA  
    2    0   17    0  -0.0101908564 AA  
    5    0   35    0  -0.0095977280 AA  
    5    0   43    0  -0.0095788052 AA  
    3    0   25    0   0.0080570960 AA  
    4    0   26    0   0.0080570960 AA  
    2    0   13    0  -0.0068921329 AA  
    3    0   13    0   0.0057054764 AA  
--------------------------------------------------------------------------------
   2       2    0.42371      0.0000      0.0000      0.0000  .00000000D+00
__________________________________________________________________________
 
__________________________________________________________________________
  TDA excitation ergy:             0.423707380088 a.u.   11.5297 eV
  Total TDA electronic energy:   -55.781688125128 a.u.
 
  Dominant contributions: 
  SCF eigenvalue ordering used in list below. 
--------------------------------------------------------------------------------
    I    j    A    b
--------------------------------------------------------------------------------
    5    0   11    0  -0.7226062130 AA  
    5    0   13    0   0.6602801633 AA  
    5    0   25    0   0.1535219802 AA  
    5    0   20    0  -0.0755864099 AA  
    5    0   17    0  -0.0534206219 AA  
    5    0    8    0   0.0364825508 AA  
    5    0   29    0  -0.0327093460 AA  
    4    0   14    0  -0.0317805703 AA  
    3    0   13    0  -0.0317805701 AA  
    4    0    6    0  -0.0271229745 AA  
    4    0   15    0  -0.0246402874 AA  
    4    0    9    0   0.0216998660 AA  
    3    0   25    0  -0.0204209175 AA  
    4    0   26    0  -0.0204209175 AA  
    5    0   24    0  -0.0189180840 AA  
--------------------------------------------------------------------------------
   3       2    0.44421      0.0000      0.0000      0.0000  .00000000D+00
__________________________________________________________________________
 
__________________________________________________________________________
  TDA excitation ergy:             0.444213556451 a.u.   12.0877 eV
  Total TDA electronic energy:   -55.761181948765 a.u.
 
  Dominant contributions: 
  SCF eigenvalue ordering used in list below. 
--------------------------------------------------------------------------------
    I    j    A    b
--------------------------------------------------------------------------------
    5    0   13    0   0.6461711129 AA  
    5    0   11    0   0.5875135009 AA  
    5    0    8    0  -0.4277627762 AA  
    5    0   25    0   0.1344299885 AA  
    5    0   24    0   0.1194511767 AA  
    5    0   20    0   0.1068366074 AA  
    5    0   31    0   0.0736778410 AA  
    5    0   17    0   0.0427257507 AA  
    5    0   29    0  -0.0222695629 AA  
    4    0    6    0  -0.0192844572 AA  
    3    0   13    0  -0.0171521068 AA  
    4    0   14    0  -0.0171521067 AA  
    5    0   43    0   0.0154250453 AA  
    3    0   25    0  -0.0137615011 AA  
    4    0   26    0  -0.0137615010 AA  
--------------------------------------------------------------------------------
   4       2    0.46382      0.0000      0.0000      0.0000  .00000000D+00
__________________________________________________________________________
 
__________________________________________________________________________
  TDA excitation ergy:             0.463823716397 a.u.   12.6213 eV
  Total TDA electronic energy:   -55.741571788819 a.u.
 
  Dominant contributions: 
  SCF eigenvalue ordering used in list below. 
--------------------------------------------------------------------------------
    I    j    A    b
--------------------------------------------------------------------------------
    4    0    6    0   0.8581120594 AA  
    4    0   10    0  -0.3574483670 AA  
    4    0    9    0  -0.2795148956 AA  
    4    0    7    0   0.0992484351 AA  
    3    0    8    0   0.0992484331 AA  
    4    0   18    0   0.0959380680 AA  
    4    0   22    0   0.0824200707 AA  
    4    0   15    0   0.0758276535 AA  
    4    0   12    0   0.0518391205 AA  
    3    0   11    0   0.0518391169 AA  
    4    0   14    0   0.0406348231 AA  
    3    0   13    0   0.0406348215 AA  
    5    0   13    0   0.0405591635 AA  
    5    0   17    0  -0.0398885493 AA  
    2    0    8    0   0.0223375562 AA  
--------------------------------------------------------------------------------
   5       2    0.51876      0.0000      0.0000      0.0000  .00000000D+00
__________________________________________________________________________
 
__________________________________________________________________________
  TDA excitation ergy:             0.518755544588 a.u.   14.1161 eV
  Total TDA electronic energy:   -55.686639960628 a.u.
 
  Dominant contributions: 
  SCF eigenvalue ordering used in list below. 
--------------------------------------------------------------------------------
    I    j    A    b
--------------------------------------------------------------------------------
    5    0   17    0   0.9403885463 AA  
    4    0    7    0  -0.1615315380 AA  
    3    0    8    0  -0.1615315242 AA  
    4    0   14    0  -0.1217215256 AA  
    3    0   13    0  -0.1217215226 AA  
    5    0   29    0   0.0935729389 AA  
    4    0    6    0   0.0870938442 AA  
    5    0   11    0  -0.0761446964 AA  
    4    0   15    0  -0.0516436115 AA  
    4    0   26    0  -0.0430831623 AA  
    3    0   25    0  -0.0430831615 AA  
    4    0    9    0  -0.0246312679 AA  
    5    0    8    0  -0.0230497108 AA  
    5    0   31    0   0.0209954985 AA  
    5    0   25    0   0.0203192723 AA  
--------------------------------------------------------------------------------
__________________________________________________________________________
  @DOEOMEE-I, Excitation energies computed by the EOMEE-CC2/CC2-LR method.
  @DOEOMEE-I, right-hand eigenvectors will be computed.
  Beginning symmetry block   1.   5 roots requested.
  @DOEOMEE-I, Matrix dimension for diagonalization:    16543
  Creating initial guess for root
________________________________________________________________________
            Subspace          Eigenvalue           
 Iteration  Dimension   (a.u.)         (eV)       Overlap      Residual
________________________________________________________________________
  @NEWGES-I, Using TDA initial guess.
  1   1  0.3350609566D+00  0.9117472151D+01  0.0000000000D+00  0.2728325183D+00
  2   2  0.2306555898D+00  0.6276457687D+01  0.9654034595D+00  0.4002862447D-01
  3   3  0.2299246254D+00  0.6256567134D+01  0.9994479260D+00  0.2424488465D-01
  4   4  0.2296846372D+00  0.6250036723D+01  0.9996650199D+00  0.5687153573D-02
  5   5  0.2296555752D+00  0.6249245907D+01  0.9999775473D+00  0.2919880661D-02
  L-O-C-K-I-N-G O-N R-O-O-T 
  6   6  0.2296487325D+00  0.6249059707D+01  0.9999852204D+00  0.8778184464D-03
  7   7  0.2296486655D+00  0.6249057886D+01  0.9999997363D+00  0.4455454624D-03
  8   8  0.2296485916D+00  0.6249055875D+01  0.9999998717D+00  0.1742118976D-03
  9   9  0.2296486667D+00  0.6249057918D+01  0.9999999573D+00  0.7121686197D-04
 10  10  0.2296486324D+00  0.6249056983D+01  0.9999999945D+00  0.2014098632D-04
 11  11  0.2296486392D+00  0.6249057169D+01  0.9999999998D+00  0.5464270851D-05
  Converged eigenvalue:   0.229648639219499       a.u.
   Total EOMEE-CC2 electronic energy      -56.176526997564736 a.u.
  Converged eigenvector 
  SCF eigenvalue ordering used in list below. 
--------------------------------------------------------------------------------
    I    j    A    b
--------------------------------------------------------------------------------
    5    0    6    0  -0.6248970757 AA  
    5    0   10    0   0.2365095083 AA  
    5    0    9    0   0.1195937054 AA  
    5    5    9    6   0.0675692283 ABAB
    5    5    6    9   0.0675692283 ABAB
    5    5   18    6  -0.0569656402 ABAB
    5    5    6   18  -0.0569656402 ABAB
    5    0   15    0  -0.0464247542 AA  
    5    0   22    0  -0.0418171755 AA  
    4    5   13    6  -0.0386693226 ABAB
    5    4    6   13  -0.0386693226 ABAB
    5    3    6   14  -0.0386693223 ABAB
    3    5   14    6  -0.0386693223 ABAB
    5    5   33    6  -0.0317273358 ABAB
    5    5    6   33  -0.0317273358 ABAB
--------------------------------------------------------------------------------
  Converged eigenvector, normalized to one 
  SCF eigenvalue ordering used in list below. 
--------------------------------------------------------------------------------
    I    j    A    b
--------------------------------------------------------------------------------
    5    0    6    0  -0.6248970757 AA  
    5    0   10    0   0.2365095083 AA  
    5    0    9    0   0.1195937054 AA  
    5    5    9    6   0.0675692283 ABAB
    5    5    6    9   0.0675692283 ABAB
    5    5   18    6  -0.0569656402 ABAB
    5    5    6   18  -0.0569656402 ABAB
    5    0   15    0  -0.0464247542 AA  
    5    0   22    0  -0.0418171755 AA  
    4    5   13    6  -0.0386693226 ABAB
    5    4    6   13  -0.0386693226 ABAB
    5    3    6   14  -0.0386693223 ABAB
    3    5   14    6  -0.0386693223 ABAB
    5    5   33    6  -0.0317273358 ABAB
    5    5    6   33  -0.0317273358 ABAB
--------------------------------------------------------------------------------

  Eigenvector is saved on CCRE_1_1  

  Adding new vector to expansion space.
  Guess for next eigenvalue   0.327525348815193     
 12  12  0.3505500206D+00  0.9538951012D+01  0.1413503552D-06  0.2360084273D+00
 13  13  0.3460031368D+00  0.9415224013D+01  0.9981194587D+00  0.3319210763D-01
 14  14  0.3455691996D+00  0.9403415981D+01  0.9996274061D+00  0.2465926778D-01
 15  15  0.3454796252D+00  0.9400978540D+01  0.9997718781D+00  0.6300224632D-02
  L-O-C-K-I-N-G O-N R-O-O-T 
 16  16  0.3454595696D+00  0.9400432797D+01  0.9999808972D+00  0.3012520287D-02
 17  17  0.3454581794D+00  0.9400394968D+01  0.9999972426D+00  0.6285207856D-03
 18  18  0.3454584087D+00  0.9400401208D+01  0.9999997533D+00  0.3318434068D-03
 19  19  0.3454584874D+00  0.9400403349D+01  0.9999999208D+00  0.8499871651D-04
 20  20  0.3454585450D+00  0.9400404917D+01  0.9999999689D+00  0.5921499044D-04
 21  21  0.3454585382D+00  0.9400404731D+01  0.9999998921D+00  0.7968588699D-04
 22  22  0.3454585402D+00  0.9400404786D+01  0.9999999776D+00  0.2236901227D-04
 23  23  0.3454585159D+00  0.9400404124D+01  0.9999999993D+00  0.7997105086D-05
  Converged eigenvalue:   0.345458515860632       a.u.
   Total EOMEE-CC2 electronic energy      -56.060717120923599 a.u.
  Converged eigenvector 
  SCF eigenvalue ordering used in list below. 
--------------------------------------------------------------------------------
    I    j    A    b
--------------------------------------------------------------------------------
    5    0    9    0  -0.6593321180 AA  
    5    5    9    9   0.1319534663 ABAB
    5    0    6    0  -0.1059137493 AA  
    5    0   10    0   0.0735874412 AA  
    5    0   18    0   0.0649673720 AA  
    5    5   18    9  -0.0546098547 ABAB
    5    5    9   18  -0.0546098547 ABAB
    4    0   13    0  -0.0423595535 AA  
    3    0   14    0  -0.0423595501 AA  
    4    5   13    9  -0.0365177715 ABAB
    5    4    9   13  -0.0365177715 ABAB
    5    3    9   14  -0.0365177707 ABAB
    3    5   14    9  -0.0365177707 ABAB
    5    5   33    9  -0.0287629663 ABAB
    5    5    9   33  -0.0287629663 ABAB
--------------------------------------------------------------------------------
  Converged eigenvector, normalized to one 
  SCF eigenvalue ordering used in list below. 
--------------------------------------------------------------------------------
    I    j    A    b
--------------------------------------------------------------------------------
    5    0    9    0  -0.6593321180 AA  
    5    5    9    9   0.1319534663 ABAB
    5    0    6    0  -0.1059137493 AA  
    5    0   10    0   0.0735874412 AA  
    5    0   18    0   0.0649673720 AA  
    5    5   18    9  -0.0546098547 ABAB
    5    5    9   18  -0.0546098547 ABAB
    4    0   13    0  -0.0423595535 AA  
    3    0   14    0  -0.0423595501 AA  
    4    5   13    9  -0.0365177715 ABAB
    5    4    9   13  -0.0365177715 ABAB
    5    3    9   14  -0.0365177707 ABAB
    3    5   14    9  -0.0365177707 ABAB
    5    5   33    9  -0.0287629663 ABAB
    5    5    9   33  -0.0287629663 ABAB
--------------------------------------------------------------------------------

  Eigenvector is saved on CCRE_1_2  

  Adding new vector to expansion space.
  Guess for next eigenvalue   0.384418150345660     
 24  24  0.2848108380D+00  0.7750096910D+01  0.8163249491D-03  0.2043597963D-01
 25  25  0.2843420585D+00  0.7737340770D+01  0.9996840332D+00  0.2449455189D-01
 26  26  0.2841879050D+00  0.7733146041D+01  0.9996726356D+00  0.3702457317D-02
  L-O-C-K-I-N-G O-N R-O-O-T 
 27  27  0.2841708479D+00  0.7732681894D+01  0.9999866029D+00  0.2460506086D-02
 28  28  0.2841665019D+00  0.7732563634D+01  0.9999942133D+00  0.7198041558D-03
 29  29  0.2841664868D+00  0.7732563221D+01  0.9999998185D+00  0.1535723983D-03
 30  30  0.2841665412D+00  0.7732564702D+01  0.9999999866D+00  0.1036242704D-03
 31  31  0.2841665395D+00  0.7732564656D+01  0.9999999843D+00  0.3383536984D-04
 32  32  0.2841665053D+00  0.7732563726D+01  0.9999999972D+00  0.2033313840D-04
 33  33  0.2841665048D+00  0.7732563710D+01  0.9999999997D+00  0.4878440758D-05
  Converged eigenvalue:   0.284166504758864       a.u.
   Total EOMEE-CC2 electronic energy      -56.122009132025369 a.u.
  Converged eigenvector 
  SCF eigenvalue ordering used in list below. 
--------------------------------------------------------------------------------
    I    j    A    b
--------------------------------------------------------------------------------
    5    0    7    0  -0.6423405851 AA  
    5    0   12    0  -0.1763229657 AA  
    5    0   14    0  -0.1328239943 AA  
    5    5    9    7   0.0689946872 ABAB
    5    5    7    9   0.0689946872 ABAB
    5    5   18    7  -0.0600604033 ABAB
    5    5    7   18  -0.0600604033 ABAB
    5    3    7   14  -0.0435814740 ABAB
    3    5   14    7  -0.0435814740 ABAB
    4    5   13    7  -0.0398970124 ABAB
    5    4    7   13  -0.0398970124 ABAB
    5    5   33    7  -0.0338368902 ABAB
    5    5    7   33  -0.0338368902 ABAB
    5    0   21    0  -0.0332840099 AA  
    5    0   16    0  -0.0305350924 AA  
--------------------------------------------------------------------------------
  Converged eigenvector, normalized to one 
  SCF eigenvalue ordering used in list below. 
--------------------------------------------------------------------------------
    I    j    A    b
--------------------------------------------------------------------------------
    5    0    7    0  -0.6423405851 AA  
    5    0   12    0  -0.1763229657 AA  
    5    0   14    0  -0.1328239943 AA  
    5    5    9    7   0.0689946872 ABAB
    5    5    7    9   0.0689946872 ABAB
    5    5   18    7  -0.0600604033 ABAB
    5    5    7   18  -0.0600604033 ABAB
    5    3    7   14  -0.0435814740 ABAB
    3    5   14    7  -0.0435814740 ABAB
    4    5   13    7  -0.0398970124 ABAB
    5    4    7   13  -0.0398970124 ABAB
    5    5   33    7  -0.0338368902 ABAB
    5    5    7   33  -0.0338368902 ABAB
    5    0   21    0  -0.0332840099 AA  
    5    0   16    0  -0.0305350924 AA  
--------------------------------------------------------------------------------

  Eigenvector is saved on CCRE_1_3  

  Adding new vector to expansion space.
  Guess for next eigenvalue   0.415334606808617     
 34  34  0.3732321870D+00  0.1015616414D+02  0.6877461221D+00  0.1747572417D-01
 35  35  0.3729534835D+00  0.1014858023D+02  0.9997311502D+00  0.5879307076D-02
  L-O-C-K-I-N-G O-N R-O-O-T 
 36  36  0.3729313039D+00  0.1014797669D+02  0.9999814036D+00  0.1702318896D-02
 37  37  0.3729276043D+00  0.1014787602D+02  0.9999974957D+00  0.5779389804D-03
 38  38  0.3729268486D+00  0.1014785546D+02  0.9999997048D+00  0.1742746857D-03
 39  39  0.3729269800D+00  0.1014785903D+02  0.9999999451D+00  0.6543305095D-04
 40  40  0.3729270585D+00  0.1014786117D+02  0.9999999939D+00  0.3606933879D-04
 41  41  0.3729270392D+00  0.1014786064D+02  0.9999999966D+00  0.1872987818D-04
 42  42  0.3729270211D+00  0.1014786015D+02  0.9999999981D+00  0.1174587787D-04
 43  43  0.3729270281D+00  0.1014786034D+02  0.9999999997D+00  0.5176480372D-05
  Converged eigenvalue:   0.372927028056534       a.u.
   Total EOMEE-CC2 electronic energy      -56.033248608727696 a.u.
  Converged eigenvector 
  SCF eigenvalue ordering used in list below. 
--------------------------------------------------------------------------------
    I    j    A    b
--------------------------------------------------------------------------------
    5    0   10    0  -0.6189313649 AA  
    5    0    6    0  -0.2449356530 AA  
    5    0   15    0   0.1144407240 AA  
    5    0   22    0   0.0811308702 AA  
    5    5   10    9   0.0556969130 ABAB
    5    5    9   10   0.0556969130 ABAB
    5    5   18   10  -0.0523223712 ABAB
    5    5   10   18  -0.0523223712 ABAB
    5    0   18    0   0.0417700385 AA  
[...]
    4    5   13   10  -0.0338668554 ABAB
--------------------------------------------------------------------------------
  Converged eigenvector, normalized to one 
  SCF eigenvalue ordering used in list below. 
--------------------------------------------------------------------------------
    I    j    A    b
--------------------------------------------------------------------------------
    5    0   10    0  -0.6189313649 AA  
    5    0    6    0  -0.2449356530 AA  
    5    0   15    0   0.1144407240 AA  
    5    0   22    0   0.0811308702 AA  
    5    5   10    9   0.0556969130 ABAB
    5    5    9   10   0.0556969130 ABAB
    5    5   18   10  -0.0523223712 ABAB
    5    5   10   18  -0.0523223712 ABAB
    5    0   18    0   0.0417700385 AA  
    5    5   10   10  -0.0393447581 ABAB
    5    5    9    6   0.0366442710 ABAB
    5    5    6    9   0.0366442710 ABAB
    5    3   10   14  -0.0338668885 ABAB
    3    5   14   10  -0.0338668885 ABAB
    4    5   13   10  -0.0338668554 ABAB
--------------------------------------------------------------------------------

  Eigenvector is saved on CCRE_1_4  

  Adding new vector to expansion space.
  Guess for next eigenvalue   0.423707380575103     
 44  44  0.3835810779D+00  0.1043777178D+02  0.6802410035D+00  0.3806035530D-01
 45  45  0.3821442299D+00  0.1039867315D+02  0.9985668877D+00  0.2300093969D-01
 46  46  0.3819768601D+00  0.1039411879D+02  0.9998159633D+00  0.4979428705D-02
  L-O-C-K-I-N-G O-N R-O-O-T 
 47  47  0.3819596291D+00  0.1039364991D+02  0.9999859797D+00  0.1886788615D-02
 48  48  0.3819574557D+00  0.1039359077D+02  0.9999983174D+00  0.1012800089D-02
 49  49  0.3819571424D+00  0.1039358224D+02  0.9999988591D+00  0.4255805102D-03
 50  50  0.3819570487D+00  0.1039357969D+02  0.9999997582D+00  0.1885686567D-03
 51  51  0.3819570456D+00  0.1039357961D+02  0.9999999586D+00  0.5223380499D-04
 52  52  0.3819570178D+00  0.1039357885D+02  0.9999999980D+00  0.1639274835D-04
 53  53  0.3819570179D+00  0.1039357886D+02  0.9999999998D+00  0.5518010817D-05
  Converged eigenvalue:   0.381957017948841       a.u.
   Total EOMEE-CC2 electronic energy      -56.024218618835391 a.u.
  Converged eigenvector 
  SCF eigenvalue ordering used in list below. 
--------------------------------------------------------------------------------
    I    j    A    b
--------------------------------------------------------------------------------
    5    0   12    0  -0.5786541111 AA  
    5    0   14    0   0.3320820443 AA  
    5    0    7    0   0.0949231597 AA  
    5    0   21    0  -0.0682256675 AA  
    5    0   26    0   0.0614680472 AA  
    5    5   12    9   0.0567278719 ABAB
    5    5    9   12   0.0567278719 ABAB
    5    0   16    0  -0.0530786056 AA  
    5    5   18   12  -0.0525101364 ABAB
    5    5   12   18  -0.0525101364 ABAB
    4    5   13   12  -0.0365020967 ABAB
    5    4   12   13  -0.0365020967 ABAB
    5    0   23    0  -0.0316763087 AA  
    5    5   33   12  -0.0311159444 ABAB
    5    5   12   33  -0.0311159444 ABAB
--------------------------------------------------------------------------------
  Converged eigenvector, normalized to one 
  SCF eigenvalue ordering used in list below. 
--------------------------------------------------------------------------------
    I    j    A    b
--------------------------------------------------------------------------------
    5    0   12    0  -0.5786541111 AA  
    5    0   14    0   0.3320820443 AA  
    5    0    7    0   0.0949231597 AA  
    5    0   21    0  -0.0682256675 AA  
    5    0   26    0   0.0614680472 AA  
    5    5   12    9   0.0567278719 ABAB
    5    5    9   12   0.0567278719 ABAB
    5    0   16    0  -0.0530786056 AA  
    5    5   18   12  -0.0525101364 ABAB
    5    5   12   18  -0.0525101364 ABAB
    4    5   13   12  -0.0365020967 ABAB
    5    4   12   13  -0.0365020967 ABAB
    5    0   23    0  -0.0316763087 AA  
    5    5   33   12  -0.0311159444 ABAB
    5    5   12   33  -0.0311159444 ABAB
--------------------------------------------------------------------------------

  Eigenvector is saved on CCRE_1_5  

  Solution of   5 roots required   53 iterations.
  @DOEOMEE-I, right-hand eigenvectors will be computed.
  Beginning symmetry block   2.   5 roots requested.
  @DOEOMEE-I, Matrix dimension for diagonalization:    16037
  Creating initial guess for root
________________________________________________________________________
            Subspace          Eigenvalue           
 Iteration  Dimension   (a.u.)         (eV)       Overlap      Residual
________________________________________________________________________
  @NEWGES-I, Using TDA initial guess.
  1   1  0.3892402172D+00  0.1059176478D+02  0.0000000000D+00  0.2950132892D+00
  2   2  0.2855327472D+00  0.7769741057D+01  0.9624366793D+00  0.4386800216D-01
  3   3  0.2845809354D+00  0.7743840940D+01  0.9994627629D+00  0.3081384564D-01
  4   4  0.2842138893D+00  0.7733853110D+01  0.9993025015D+00  0.5901380985D-02
  5   5  0.2841757910D+00  0.7732816403D+01  0.9999680386D+00  0.3165983480D-02
  L-O-C-K-I-N-G O-N R-O-O-T 
  6   6  0.2841665754D+00  0.7732565633D+01  0.9999858725D+00  0.1252695285D-02
  7   7  0.2841664248D+00  0.7732561536D+01  0.9999994465D+00  0.2017434749D-03
  8   8  0.2841665808D+00  0.7732565779D+01  0.9999999700D+00  0.1649852699D-03
  9   9  0.2841665717D+00  0.7732565533D+01  0.9999999579D+00  0.6136359186D-04
 10  10  0.2841665070D+00  0.7732563773D+01  0.9999999940D+00  0.3003267776D-04
 11  11  0.2841665006D+00  0.7732563597D+01  0.9999999992D+00  0.5917921346D-05
  Converged eigenvalue:   0.284166500585876       a.u.
   Total EOMEE-CC2 electronic energy      -56.122009136198358 a.u.
  Converged eigenvector 
  SCF eigenvalue ordering used in list below. 
--------------------------------------------------------------------------------
    I    j    A    b
--------------------------------------------------------------------------------
    5    0    8    0  -0.6423408682 AA  
    5    0   11    0  -0.1763224023 AA  
    5    0   13    0  -0.1328238600 AA  
    5    5    8    9   0.0689943972 ABAB
    5    5    9    8   0.0689943972 ABAB
    5    5    8   18  -0.0600602268 ABAB
    5    5   18    8  -0.0600602268 ABAB
    4    5   13    8  -0.0435813652 ABAB
    5    4    8   13  -0.0435813652 ABAB
    5    3    8   14  -0.0398969115 ABAB
    3    5   14    8  -0.0398969115 ABAB
    5    5    8   33  -0.0338369200 ABAB
    5    5   33    8  -0.0338369200 ABAB
    5    0   20    0  -0.0332842209 AA  
    5    0   17    0  -0.0305338444 AA  
--------------------------------------------------------------------------------
  Converged eigenvector, normalized to one 
  SCF eigenvalue ordering used in list below. 
--------------------------------------------------------------------------------
    I    j    A    b
--------------------------------------------------------------------------------
    5    0    8    0  -0.6423408682 AA  
    5    0   11    0  -0.1763224023 AA  
    5    0   13    0  -0.1328238600 AA  
    5    5    8    9   0.0689943972 ABAB
    5    5    9    8   0.0689943972 ABAB
    5    5    8   18  -0.0600602268 ABAB
    5    5   18    8  -0.0600602268 ABAB
    4    5   13    8  -0.0435813652 ABAB
    5    4    8   13  -0.0435813652 ABAB
    5    3    8   14  -0.0398969115 ABAB
    3    5   14    8  -0.0398969115 ABAB
    5    5    8   33  -0.0338369200 ABAB
    5    5   33    8  -0.0338369200 ABAB
    5    0   20    0  -0.0332842209 AA  
    5    0   17    0  -0.0305338444 AA  
--------------------------------------------------------------------------------

  Eigenvector is saved on CCRE_2_1  

  Adding new vector to expansion space.
  Guess for next eigenvalue   0.423707380088342     
 12  12  0.3848155941D+00  0.1047136467D+02  0.6886694289D+00  0.4791888504D-01
 13  13  0.3824659512D+00  0.1040742764D+02  0.9981642268D+00  0.3255139680D-01
 14  14  0.3820993875D+00  0.1039745293D+02  0.9993167274D+00  0.1036709209D-01
 15  15  0.3820100262D+00  0.1039502129D+02  0.9998692523D+00  0.8891212224D-02
  L-O-C-K-I-N-G O-N R-O-O-T 
 16  16  0.3819728756D+00  0.1039401037D+02  0.9998657769D+00  0.3942113492D-02
 17  17  0.3819610939D+00  0.1039368977D+02  0.9999734271D+00  0.2373824817D-02
 18  18  0.3819584184D+00  0.1039361697D+02  0.9999932443D+00  0.1105931389D-02
 19  19  0.3819573392D+00  0.1039358760D+02  0.9999973906D+00  0.4897726973D-03
 20  20  0.3819570280D+00  0.1039357913D+02  0.9999995751D+00  0.1672818266D-03
 21  21  0.3819570007D+00  0.1039357839D+02  0.9999999784D+00  0.8040652851D-04
 22  22  0.3819570221D+00  0.1039357897D+02  0.9999999963D+00  0.2331362789D-04
 23  23  0.3819570168D+00  0.1039357883D+02  0.9999999996D+00  0.1026280107D-04
 24  24  0.3819570177D+00  0.1039357885D+02  0.9999999999D+00  0.5225553911D-05
  Converged eigenvalue:   0.381957017657022       a.u.
   Total EOMEE-CC2 electronic energy      -56.024218619127211 a.u.
  Converged eigenvector 
  SCF eigenvalue ordering used in list below. 
--------------------------------------------------------------------------------
    I    j    A    b
--------------------------------------------------------------------------------
    5    0   11    0  -0.5786541643 AA  
    5    0   13    0   0.3320814254 AA  
    5    0    8    0   0.0949233272 AA  
    5    0   20    0  -0.0682236051 AA  
    5    0   25    0   0.0614693105 AA  
    5    5   11    9   0.0567279583 ABAB
    5    5    9   11   0.0567279583 ABAB
    5    0   17    0  -0.0530829669 AA  
    5    5   11   18  -0.0525101217 ABAB
    5    5   18   11  -0.0525101217 ABAB
    5    3   11   14  -0.0365020830 ABAB
    3    5   14   11  -0.0365020830 ABAB
    5    0   24    0  -0.0316766183 AA  
    5    5   11   33  -0.0311159583 ABAB
    5    5   33   11  -0.0311159583 ABAB
--------------------------------------------------------------------------------
  Converged eigenvector, normalized to one 
  SCF eigenvalue ordering used in list below. 
--------------------------------------------------------------------------------
    I    j    A    b
--------------------------------------------------------------------------------
    5    0   11    0  -0.5786541643 AA  
    5    0   13    0   0.3320814254 AA  
    5    0    8    0   0.0949233272 AA  
    5    0   20    0  -0.0682236051 AA  
    5    0   25    0   0.0614693105 AA  
    5    5   11    9   0.0567279583 ABAB
    5    5    9   11   0.0567279583 ABAB
    5    0   17    0  -0.0530829669 AA  
    5    5   11   18  -0.0525101217 ABAB
    5    5   18   11  -0.0525101217 ABAB
    5    3   11   14  -0.0365020830 ABAB
    3    5   14   11  -0.0365020830 ABAB
    5    0   24    0  -0.0316766183 AA  
    5    5   11   33  -0.0311159583 ABAB
    5    5   33   11  -0.0311159583 ABAB
--------------------------------------------------------------------------------

  Eigenvector is saved on CCRE_2_2  

  Adding new vector to expansion space.
  Guess for next eigenvalue   0.444213556450926     
 25  25  0.4128222717D+00  0.1123346511D+02  0.6717962500D+00  0.1878816583D-01
 26  26  0.4124694422D+00  0.1122386413D+02  0.9996948740D+00  0.1008946971D-01
 27  27  0.4124251336D+00  0.1122265844D+02  0.9999469440D+00  0.3348787242D-02
  L-O-C-K-I-N-G O-N R-O-O-T 
 28  28  0.4124161574D+00  0.1122241418D+02  0.9999857267D+00  0.1800179097D-02
 29  29  0.4124132758D+00  0.1122233577D+02  0.9999949393D+00  0.7808601561D-03
 30  30  0.4124135150D+00  0.1122234228D+02  0.9999991282D+00  0.3094901195D-03
 31  31  0.4124134154D+00  0.1122233957D+02  0.9999998573D+00  0.8753101864D-04
 32  32  0.4124132878D+00  0.1122233609D+02  0.9999999934D+00  0.3080140850D-04
 33  33  0.4124132860D+00  0.1122233604D+02  0.9999999993D+00  0.1001879391D-04
 34  34  0.4124132984D+00  0.1122233638D+02  0.9999999999D+00  0.3722100986D-05
  Converged eigenvalue:   0.412413298367336       a.u.
   Total EOMEE-CC2 electronic energy      -55.993762338416900 a.u.
  Converged eigenvector 
  SCF eigenvalue ordering used in list below. 
--------------------------------------------------------------------------------
    I    j    A    b
--------------------------------------------------------------------------------
    5    0   13    0   0.5738216504 AA  
    5    0   11    0   0.2927529486 AA  
    5    0    8    0  -0.1968369964 AA  
    5    0   25    0   0.0869983993 AA  
    5    0   24    0   0.0607224452 AA  
    5    0   20    0   0.0454632642 AA  
    5    5   13   18   0.0434429323 ABAB
    5    5   18   13   0.0434429323 ABAB
    5    5   13    9  -0.0423541327 ABAB
    5    5    9   13  -0.0423541327 ABAB
    5    0   31    0   0.0401299435 AA  
    4    5   13   13   0.0378148522 ABAB
    5    4   13   13   0.0378148522 ABAB
    5    5    8    9   0.0301671648 ABAB
    5    5    9    8   0.0301671648 ABAB
--------------------------------------------------------------------------------
  Converged eigenvector, normalized to one 
  SCF eigenvalue ordering used in list below. 
--------------------------------------------------------------------------------
    I    j    A    b
--------------------------------------------------------------------------------
    5    0   13    0   0.5738216504 AA  
    5    0   11    0   0.2927529486 AA  
    5    0    8    0  -0.1968369964 AA  
    5    0   25    0   0.0869983993 AA  
    5    0   24    0   0.0607224452 AA  
    5    0   20    0   0.0454632642 AA  
    5    5   13   18   0.0434429323 ABAB
    5    5   18   13   0.0434429323 ABAB
    5    5   13    9  -0.0423541327 ABAB
    5    5    9   13  -0.0423541327 ABAB
    5    0   31    0   0.0401299435 AA  
    4    5   13   13   0.0378148522 ABAB
    5    4   13   13   0.0378148522 ABAB
    5    5    8    9   0.0301671648 ABAB
    5    5    9    8   0.0301671648 ABAB
--------------------------------------------------------------------------------

  Eigenvector is saved on CCRE_2_3  

  Adding new vector to expansion space.
  Guess for next eigenvalue   0.463823716396969     
 35  35  0.4379165425D+00  0.1191631494D+02  0.7005953723D+00  0.1894605752D-01
 36  36  0.4376383890D+00  0.1190874599D+02  0.9996361119D+00  0.9068769429D-02
 37  37  0.4375900907D+00  0.1190743173D+02  0.9999401355D+00  0.3058212477D-02
  L-O-C-K-I-N-G O-N R-O-O-T 
 38  38  0.4375842811D+00  0.1190727364D+02  0.9999890344D+00  0.6347265902D-03
 39  39  0.4375838458D+00  0.1190726180D+02  0.9999996902D+00  0.1762471429D-03
 40  40  0.4375840594D+00  0.1190726761D+02  0.9999999798D+00  0.4622064609D-04
 41  41  0.4375840852D+00  0.1190726831D+02  0.9999999980D+00  0.2127704143D-04
 42  42  0.4375840655D+00  0.1190726778D+02  0.9999999996D+00  0.6611752515D-05
  Converged eigenvalue:   0.437584065463827       a.u.
   Total EOMEE-CC2 electronic energy      -55.968591571320403 a.u.
  Converged eigenvector 
  SCF eigenvalue ordering used in list below. 
--------------------------------------------------------------------------------
    I    j    A    b
--------------------------------------------------------------------------------
    4    0    6    0   0.6174478696 AA  
    4    0   10    0  -0.2272453677 AA  
    4    0    9    0  -0.1675990211 AA  
    4    0   18    0   0.0475668564 AA  
    4    5    6    9  -0.0464026740 ABAB
    5    4    9    6  -0.0464026740 ABAB
    4    0   15    0   0.0441230271 AA  
    4    0   22    0   0.0411838858 AA  
    4    0    7    0   0.0360927077 AA  
    3    0    8    0   0.0360927018 AA  
    4    5    6   18   0.0358126527 ABAB
    5    4   18    6   0.0358126527 ABAB
    4    3    6   14   0.0326674715 ABAB
    3    4   14    6   0.0326674715 ABAB
    4    4   13    6   0.0307560901 ABAB
--------------------------------------------------------------------------------
  Converged eigenvector, normalized to one 
  SCF eigenvalue ordering used in list below. 
--------------------------------------------------------------------------------
    I    j    A    b
--------------------------------------------------------------------------------
    4    0    6    0   0.6174478696 AA  
    4    0   10    0  -0.2272453677 AA  
    4    0    9    0  -0.1675990211 AA  
    4    0   18    0   0.0475668564 AA  
    4    5    6    9  -0.0464026740 ABAB
    5    4    9    6  -0.0464026740 ABAB
    4    0   15    0   0.0441230271 AA  
    4    0   22    0   0.0411838858 AA  
    4    0    7    0   0.0360927077 AA  
    3    0    8    0   0.0360927018 AA  
    4    5    6   18   0.0358126527 ABAB
    5    4   18    6   0.0358126527 ABAB
    4    3    6   14   0.0326674715 ABAB
    3    4   14    6   0.0326674715 ABAB
    4    4   13    6   0.0307560901 ABAB
--------------------------------------------------------------------------------

  Eigenvector is saved on CCRE_2_4  

  Adding new vector to expansion space.
  Guess for next eigenvalue   0.518755544587845     
 43  43  0.4747141057D+00  0.1291762754D+02  0.6802421360D+00  0.4577522320D-01
 44  44  0.4735981174D+00  0.1288725995D+02  0.9972654769D+00  0.1478592014D-01
 45  45  0.4734725390D+00  0.1288384279D+02  0.9997347637D+00  0.3439375211D-02
  L-O-C-K-I-N-G O-N R-O-O-T 
 46  46  0.4734605892D+00  0.1288351762D+02  0.9999906467D+00  0.9887093726D-03
 47  47  0.4734597575D+00  0.1288349499D+02  0.9999992757D+00  0.3045988328D-03
 48  48  0.4734596540D+00  0.1288349217D+02  0.9999999364D+00  0.9442555711D-04
 49  49  0.4734596567D+00  0.1288349224D+02  0.9999999952D+00  0.3247671056D-04
 50  50  0.4734596584D+00  0.1288349229D+02  0.9999999994D+00  0.8224585618D-05
  Converged eigenvalue:   0.473459658373918       a.u.
   Total EOMEE-CC2 electronic energy      -55.932715978410315 a.u.
  Converged eigenvector 
  SCF eigenvalue ordering used in list below. 
--------------------------------------------------------------------------------
    I    j    A    b
--------------------------------------------------------------------------------
    5    0   17    0   0.6740807357 AA  
    5    5   17   18   0.0651229821 ABAB
    5    5   18   17   0.0651229821 ABAB
    5    5   17    9  -0.0645393209 ABAB
    5    5    9   17  -0.0645393209 ABAB
    5    0   11    0  -0.0528245776 AA  
    5    0   29    0   0.0501939350 AA  
    4    0   14    0  -0.0396078867 AA  
    3    0   13    0  -0.0396074248 AA  
    4    5   13   17   0.0388942282 ABAB
    5    4   17   13   0.0388942282 ABAB
    5    3   17   14   0.0384869694 ABAB
    3    5   14   17   0.0384869694 ABAB
    5    5   17   33   0.0348247160 ABAB
    5    5   33   17   0.0348247160 ABAB
--------------------------------------------------------------------------------
  Converged eigenvector, normalized to one 
  SCF eigenvalue ordering used in list below. 
--------------------------------------------------------------------------------
    I    j    A    b
--------------------------------------------------------------------------------
    5    0   17    0   0.6740807357 AA  
    5    5   17   18   0.0651229821 ABAB
    5    5   18   17   0.0651229821 ABAB
    5    5   17    9  -0.0645393209 ABAB
    5    5    9   17  -0.0645393209 ABAB
    5    0   11    0  -0.0528245776 AA  
    5    0   29    0   0.0501939350 AA  
    4    0   14    0  -0.0396078867 AA  
    3    0   13    0  -0.0396074248 AA  
    4    5   13   17   0.0388942282 ABAB
    5    4   17   13   0.0388942282 ABAB
    5    3   17   14   0.0384869694 ABAB
    3    5   14   17   0.0384869694 ABAB
    5    5   17   33   0.0348247160 ABAB
    5    5   33   17   0.0348247160 ABAB
--------------------------------------------------------------------------------

  Eigenvector is saved on CCRE_2_5  

  Solution of   5 roots required   50 iterations.
 @CHECKOUT-I, Total execution time (CPU/WALL):       58.07/       2.99 seconds.
--executable xvee finished with status     0 in        3.64 seconds (walltime).
  The final electronic energy is       -55.932715978410315 a.u. 
  This computation required                           12.39 seconds (walltime).
