 --invoking executable--
/home/CEISAM/blondel-a/soft/cfour2.1/cfour2.1-serial-mkl/bin/xjoda


   *************************************************************************
         <<<     CCCCCC     CCCCCC   |||     CCCCCC     CCCCCC   >>>
       <<<      CCC        CCC       |||    CCC        CCC         >>>
      <<<      CCC        CCC        |||   CCC        CCC            >>>
    <<<        CCC        CCC        |||   CCC        CCC              >>>
      <<<      CCC        CCC        |||   CCC        CCC            >>>
       <<<      CCC        CCC       |||    CCC        CCC         >>>
         <<<     CCCCCC     CCCCCC   |||     CCCCCC     CCCCCC   >>>
   *************************************************************************

     ****************************************************************
     * CFOUR Coupled-Cluster techniques for Computational Chemistry *
     ****************************************************************
 

   Department of Chemistry                Institut fuer Physikalische Chemie
   University of Florida                  Universitaet Mainz
   Gainesville, FL 32611, USA             D-55099 Mainz, Germany

   Department of Chemistry                Fakultaet fuer Chemie und Biowiss.
   Johns Hopkins University               Karlsruher Institut fuer Technologie
   Baltimore, MD 21218, USA               D-76131 Karlsruhe, Germany

   Department of Chemistry                Department of Physical Chemistry
   Southern Methodist University          Eotvos Lorand University
   Dallas, TX 75275, USA                  H-1053 Budapest, Hungary

 
                       Version 2.1
 
                     nazare097                                         
                     Thu Mar 18 20:42:38 CET 2021                      
                     integer*8 version is running
 
********************************************************************************
*                          Input from ZMAT file                                *
********************************************************************************
Ketene -GS                                                                      
B     0.0000000000            0.0000000000            0.0000000000              
F     0.0000000000            0.0000000000            2.3972962605              
                                                                                
*CFOUR(COORD=CARTESIAN,UNITS=BOHR                                               
       MEMORY=100,MEM_UNIT=GB,CC_PROG=NCC                                       
       FROZEN_CORE=1                                                            
       CALC=CCSD,BASIS=AUG-PVTZ                                                 
       SCF_CONV=8,CC_CONV=7,ESTATE_CONV=5,ESTATE_MAXCYC=120                     
       EXCITE=EOMEE,ESTATE_SYM=0/1/0/0)                                         
                                                                                
********************************************************************************
    -------------------------------------------------------------------
                    CFOUR Control Parameters 
    -------------------------------------------------------------------
        External           Internal           Value            Units
          Name               Name
    -------------------------------------------------------------------
       ABCDTYPE             IABCDT         STANDARD    [  0]    ***   
       ANHARMONIC           IANHAR         OFF         [  0]    ***   
       ANH_ALGORIT          IANALG         STANDARD    [  0]    ***   
       ANH_DERIVAT          IANDER         SECOND      [  1]    ***   
       ANH_MODE             ANHMOD         VIBRATION   [  0]    ***   
       ANH_STEPSIZ          ICUBST             50000          x 10-6  
       ANH_SYMMETR          IANHSM         ABELIAN     [  0]    ***   
       AO_LADDERS           IAOLAD         SINGLEPASS  [  1]    ***   
       AV_SCF               IAVSCF         OFF         [  0]    ***   
       BASIS                IBASIS         AUG-PVTZ    [ 34]    ***   
       BOTHVECTORS          BOTHVC         OFF         [  0]    ***   
       BOX_POTENT           IPIAB          OFF         [  0]    ***   
       BREIT                IBREIT         OFF         [  0]    ***   
       BRUCK_CONV           IBRTOL          10D-  4             ***   
       BRUECKNER            IBRKNR         OFF         [  0]    ***   
       BUFFERSIZE           IBUFFS              4096            ***   
       CACHE_RECS           ICHREC             10               ***   
       CALCLEVEL            ICLLVL         CCSD        [ 10]    ***   
       CCORBOPT             ICCORB         OFF         [  0]  x 0.01  
       CC_CONV              ICCCNV          10D-  7             ***   
       CC_EXPORDER          ICCEOR              5               ***   
       CC_EXTRAPOL          ICCEXT         DIIS        [  1]    ***   
       CC_GUESS             ICCGES         MP2         [  0]    ***   
       CC_MAXCYC            ICCCYC            100              cycles 
       CC_PROGRAM           ICCPRO         NCC         [  5]    ***   
       CHARGE               ICHRGE              0               ***   
       CHOLESKY             ICHOLE         OFF         [  0]    ***   
       CIS_CONV             ICISTL              5               ***   
       COMM_SIZE            IPSIZE            ***               ***   
       CONSTANT             ICONST         OLD         [  1]    ***   
       CONTINUUM            ICONTU         NONE        [  0]    ***   
       CONTRACTION          ICNTYP         GENERAL     [  1]    ***   
       COORDINATES          ICOORD         CARTESIAN   [  1]    ***   
       CPHF_CONVER          ICPHFT          10D- 16             ***   
       CPHF_MAXCYC          ICPHFC             64              cycles 
       CUBIC                ICUBIC         OFF         [  0]    ***   
       CURVILINEAR          ICURVY         OFF         [  0]    ***   
       DBOC                 IDBOC          OFF         [  0]    ***   
       DCT                  IDCT           OFF         [  0]    ***   
       DERIV_LEV            IDRLVL         ZERO        [  0]    ***   
       DEVMEM_SIZE          IDVMEM         *********           MByte  
       DIAG_MRCC            IEOMST          10D-  0             ***   
       DIFF_TYPE            IDIFTY         RELAXED     [  0]    ***   
       DIRECT               IDIRCT         OFF         [  0]    ***   
       DROPMO               IDRPMO      NONE         
       ECP                  IECP           OFF         [  0]    ***   
       EIGENVECTOR          IVEC                1               ***   
       EL_ANHARM            IELANH         OFF         [  0]    ***   
       EOMFOLLOW            IEOMSR         ENERGY      [  0]    ***   
       EOMIP                IEOMIP         OFF         [  0]    ***   
       EOMLEVEL             HBARFM         SAME        [  0]    ***   
       EOM_MRCC             IMRCCE         NEW         [  1]    ***   
       EOM_NONIT            EOMNON         OFF         [  0]    ***   
       EOM_NSING            IEOMSI          10D-  0             ***   
       EOM_NSTATES          IMRCCD         DAVIDSON    [  0]    ***   
       EOM_NTRIP            IEOMTR          10D-  0             ***   
       EOM_ORDER            IEXORD         ENERGY      [  0]    ***   
       EOM_PROPSTA          IEOMST              0               ***   
       ESTATE_CONV          IEXTOL          10D-  5             ***   
       ESTATE_DIAG          IEXDIG         ITERATIVE   [  0]    ***   
       ESTATE_LOCK          IESLOC         ON          [  1]    ***   
       ESTATE_MAXC          IEXMXC            120               ***   
       ESTATE_PROP          IEXPRP         OFF         [  0]    ***   
       ESTATE_SYM           IEXSYM   0,  1,  0,  0,
       EVAL_HESS            IRECAL              0            # of cyc.
       EXCITATION           IEXCIT              0               ***   
       EXCITE               IEXCIT         EOMEE       [  3]    ***   
       EXTERN_POT           IEXPOT         OFF         [  0]    ***   
       FCGRADNEW            IFCGNW         OFF         [  0]    ***   
       FC_FIELD             IFINFC              0             x 10-6  
       FD_CALTYPE           IFDCAL         GRADONLY    [  0]    ***   
       FD_PROJECT           IFDPRJ         OFF         [  1]    ***   
       FD_STEPSIZE          IDISFD              0            10-4 bohr
       FD_USEGROUP          IFDGRP         FULL        [  0]    ***   
       FILE_RECSIZ          IFLREC              4096           words  
       FINITE_PERT          IFIPER              0             x 10-6  
       FIXGEOM              IFIXGM         OFF         [  0]    ***   
       FOCK                 IFOCK          AO          [  1]    ***   
       FREQ_ALGORI          IVIALG         STANDARD    [  0]    ***   
       FROZEN_CORE          IFROCO         ON          [  1]    ***   
       GAMMA_ABCD           IGABCD         STORE       [  0]    ***   
       GAMMA_ABCI           IGABCI         STORE       [  0]    ***   
       GENBAS_1             IGNBS1              0               ***   
       GENBAS_2             IGNBS2              0               ***   
       GENBAS_3             IGNBS3              0               ***   
       GENBAS_4             IGNBS4              0               ***   
       GEO_CONV             ICONTL              5              H/bohr 
       GEO_MAXCYC           IOPTCY             50               ***   
       GEO_MAXSTEP          IMXSTP            300            millibohr
       GEO_METHOD           INR            SINGLE_POINT[  5]    ***   
       GIAO                 IGIAO          OFF         [  1]    ***   
       GIMIC                IGIMIC         OFF         [  0]    ***   
       GRID                 IGRID          OFF         [  0]    ***   
       GRID_ALGO            IGALGO         SERIAL      [  0]    ***   
       GUESS                IGUESS         MOREAD      [  0]    ***   
       HBAR                 IHBAR          ON          [  1]    ***   
       HESS_TYPE            IHESTP         SCF         [  0]    ***   
       HF2_FILE             IHF2Fl         USE         [  1]    ***   
       HFSTABILITY          ISTABL         OFF         [  0]    ***   
       INCORE               INCORE         OFF         [  0]    ***   
       INPUT_MRCC           IMRCC          ON          [  1]    ***   
       INTEGRALS            INTTYP         VMOL        [  1]    ***   
       JODA_PRINT           IJPRNT              0               ***   
       KEYWORD_OUT          IDMPKW         NO          [  0]    ***   
       LINDEP_TOL           ILINDP              8               ***   
       LINEQ_CONV           IZTACN          10D-  7           cycles  
       LINEQ_EXPOR          ILMAXD              5               ***   
       LINEQ_MAXCY          ILMAXC            100               ***   
       LINEQ_TYPE           ILTYPE         DIIS        [  1]    ***   
       LOCK_ORBOCC          ILOCOC         OFF         [  0]    ***   
       MEMORY_SIZE          IMEMSZ         *********           words  
       MEM_UNIT             IMEMU          GB          [  3]    ***   
       MRCC                 IMRCCC         OFF         [  0]    ***   
       MULTIPLICTY          IMULTP              1               ***   
       NACOUPLING           IVCOUP         OFF         [  0]    ***   
       NEGEVAL              IDIE           ABORT       [  0]    ***   
       NEWNORM              INEWNO         OFF         [  0]    ***   
       NON-HF               INONHF         OFF         [  0]    ***   
       NTOP_TAMP            ITOPT2             15               ***   
       NUC_MODEL            INUCMO         POINT       [  0]    ***   
       OCCUPATION           IOCCU   ESTIMATED BY SCF 
       OPEN-SHELL           IOPEN          SPIN-ORBITAL[  0]    ***   
       OPTVIB               IOPTVB         OFF         [  0]    ***   
       ORBITALS             IORBTP         STANDARD    [  0]    ***   
       PARALLEL             IPARAL         ON          [  1]    ***   
       PARA_INT             IPINTS         ON          [  1]    ***   
       PARA_PRINT           IPPRIN              0               ***   
       PERT_ORB             IPTORB         STANDARD    [  0]    ***   
       POINTS               IGRDFD              0               ***   
       PRINT                IPRNT               0               ***   
       PROPS                IPROPS         OFF         [  0]    ***   
       PROP_INTEGR          IINTYP         INTERNAL    [  0]    ***   
       PSI                  IPSI           OFF         [  0]    ***   
       QC_ALG               IQCALG         FLM         [  0]    ***   
       QC_LINALG            IQCLIN         TRIDIAG     [  2]    ***   
       QC_MAXCYC            IQCMAX          10D-100           cycles  
       QC_MAXSCFCY          IQCMSC          10D- 15           cycles  
       QC_RTRUST            IQCRTR          10D-  0           x 10-3  
       QC_SKIPSCF           IQCSKI         OFF         [  0]    ***   
       QC_START             IQCSTA          10D-  1             ***   
       QRHFGUESS            IQGUES         OFF         [  0]    ***   
       QUARTIC              IQUART         OFF         [  0]    ***   
       RAMAN_INT            IRAMIN         OFF         [  0]    ***   
       RAMAN_ORB            IRAMRE         UNRELAXED   [  0]    ***   
       RDO                  IRDOFM         OFF         [  0]    ***   
       REDUCE_REPR          REDREP         Ir          [  0]    ***   
       REFERENCE            IREFNC         RHF         [  0]    ***   
       RELATIVIST           IRELAT         OFF         [  0]    ***   
       RELAX_DENS           IRDENS         OFF         [  0]    ***   
       RESET_FLAGS          IRESET         OFF         [  0]    ***   
       RESTART_CC           ICCRES         OFF         [  0]    ***   
       ROT_EVEC             ROTVEC              0               ***   
       SAVE_INTS            ISVINT         OFF         [  0]    ***   
       SCALE_ON             ISTCRT              0               ***   
       SCF_CONV             ISCFCV          10D-  8             ***   
       SCF_DAMPING          IDAMP               0             x 10-3  
       SCF_EXPORDE          IRPPOR              6               ***   
       SCF_EXPSTAR          IRPPLS              8               ***   
       SCF_EXTRAPO          IRPP           ON          [  1]    ***   
       SCF_MAXCYC           ISCFCY            150              cycles 
       SCF_NOSTOP           ISCFST         OFF         [  0]    ***   
       SCF_PRINT            ISCFPR              0               ***   
       SCF_PROG             ISCFPR         SCF         [  0]    ***   
       SD_FIELD             IFINSD              0             x 10-6  
       SOPERT               IPERSO         OFF         [  0]    ***   
       SPHERICAL            IDFGHI         ON          [  1]    ***   
       SPINORBIT            ISOCAL         OFF         [  0]    ***   
       SPINROTATIO          ISRCON         OFF         [  0]    ***   
       SPIN_FLIP            ISPFLP         OFF         [  0]    ***   
       SPIN_ORBIT           ISPORB         OFF         [  0]    ***   
       SPIN_SCAL            ISCSMP         OFF         [  0]    ***   
       STEEPSCALE           ISTPSC              1000          x 10-3  
       SUBGROUP             ISUBGP         DEFAULT     [  0]    ***   
       SUBGRPAXIS           ISBXYZ         X           [  0]    ***   
       SYMMETRY             ISYM           ON          [  0]    ***   
       SYM_CHECK            ISYMCK         OVERRIDE    [  1]    ***   
       T3_EXTRAPOL          IT3EXT         OFF         [  0]    ***   
       T4_EXTRAPOL          IT4EXP         OFF         [  0]    ***   
       TAMP_SUM             IEVERY              5               ***   
       TESTSUITE            ITESTS         OFF         [  0]    ***   
       THERMOCH             ITHERM         OFF         [  0]    ***   
       TOL_CHOLESK          ITOLCH          10D-  4             ***   
       TRANGRAD             IRESRM         OFF         [  0]    ***   
       TRANS_INV            ITRAIN         USE         [  0]    ***   
       TREAT_PERT           ITREAT         SIMULTANEOUS[  0]    ***   
       TRIP_ALGORI          ITRALG         NORMAL      [  0]    ***   
       UIJ_THRESHO          IUIJTH              1               ***   
       UNITS                IUNITS         BOHR        [  1]    ***   
       UNOS                 IUNOS          OFF         [  0]    ***   
       UPDATE_HESS          IHUPDT         ON          [  1]    ***   
       VIBPHASE             ISETPH         STANDARD    [  0]    ***   
       VIBRATION            IVIB           NO          [  0]    ***   
       VIB_ALGORIT          IGEALG         STANDARD    [  0]    ***   
       VNATORB              IVNORB         OFF         [  0]    ***   
       VTRAN                IVTRAN         FULL/PARTIAL[  0]    ***   
       XFIELD               IXEFLD              0             x 10-6  
       XFORM_TOL            IXFTOL          10D- 11             ***   
       YFIELD               IYEFLD              0             x 10-6  
       ZFIELD               IZEFLD              0             x 10-6  
       ZSCALE_EXP           IZEXPS         OFF         [  0]    ***   
    -------------------------------------------------------------------
  @GETXYZ-I,     2 atoms read from ZMAT.
   Rotational constants (in cm-1): 
          1.5028196650             1.5028196650
   Rotational constants (in MHz): 
      45053.4064417322         45053.4064417322
********************************************************************************
   The full molecular point group is CXv .
   The largest Abelian subgroup of the full molecular point group is C2v .
   The computational point group is C2v .
********************************************************************************


 ----------------------------------------------------------------
         Coordinates used in calculation (QCOMP) 
 ----------------------------------------------------------------
 Z-matrix   Atomic            Coordinates (in bohr)
  Symbol    Number           X              Y              Z
 ----------------------------------------------------------------
     B         5        -0.00000000     0.00000000     1.51777004
     F         9         0.00000000     0.00000000    -0.87952622
 ----------------------------------------------------------------
 
   Interatomic distance matrix (Angstroms) 
 
                 B             F    
                [ 1]        [ 2]
  B    [ 1]     0.00000
  F    [ 2]     1.26859     0.00000
 rotcon2
   Rotational constants (in cm-1): 
          1.5028196650             0.0000000000
   Rotational constants (in MHz): 
      45053.4064417322             0.0000000000
  There are   2 frozen-core orbitals.
  There are   92 basis functions.
 @GEOPT-W, Archive file not created for single-point calculation.
 @CHECKOUT-I, Total execution time (CPU/WALL):        0.14/       1.33 seconds.
--executable xjoda finished with status     0 in        1.84 seconds (walltime).
 --invoking executable--
/home/CEISAM/blondel-a/soft/cfour2.1/cfour2.1-serial-mkl/bin/xvmol
 SERIAL VERSION OF MOLECULE STARTED
********************************************************************************
                    INPUT FROM MOL FILE
********************************************************************************
INTGRL        1    0    1    0    0    0    0    0    0                         
         *** CFOUR Program System (Release V0.1) ***                            
Ketene -GS                                                                      
    2    2 X  Y       0.10E-08              0    0                              
   9999.00      3.00                                                            
          5.00000000    1    4    1    1    1    1                              
B #1  -0.000000000000000   0.000000000000000   1.517770036077388                
   11    5                                                                      
   5473.00000000000       5.550000000000000E-004 -1.120000000000000E-004        
  0.000000000000000E+000  0.000000000000000E+000  0.000000000000000E+000        
   820.900000000000       4.291000000000000E-003 -8.680000000000000E-004        
  0.000000000000000E+000  0.000000000000000E+000  0.000000000000000E+000        
   186.800000000000       2.194900000000000E-002 -4.484000000000000E-003        
  0.000000000000000E+000  0.000000000000000E+000  0.000000000000000E+000        
   52.8300000000000       8.444100000000000E-002 -1.768300000000000E-002        
  0.000000000000000E+000  0.000000000000000E+000  0.000000000000000E+000        
   17.0800000000000       0.238557000000000      -5.363900000000000E-002        
  0.000000000000000E+000  0.000000000000000E+000  0.000000000000000E+000        
   5.99900000000000       0.435072000000000      -0.119005000000000             
  0.000000000000000E+000  0.000000000000000E+000  0.000000000000000E+000        
   2.20800000000000       0.341955000000000      -0.165824000000000             
  0.000000000000000E+000  0.000000000000000E+000  0.000000000000000E+000        
  0.587900000000000       3.685600000000000E-002  0.120107000000000             
   1.00000000000000       0.000000000000000E+000  0.000000000000000E+000        
  0.241500000000000      -9.545000000000000E-003  0.595981000000000             
  0.000000000000000E+000  0.000000000000000E+000  0.000000000000000E+000        
  8.610000000000000E-002  2.368000000000000E-003  0.411021000000000             
  0.000000000000000E+000   1.00000000000000       0.000000000000000E+000        
  2.914000000000000E-002  0.000000000000000E+000  0.000000000000000E+000        
  0.000000000000000E+000  0.000000000000000E+000   1.00000000000000             
    6    4                                                                      
   12.0500000000000       1.311800000000000E-002  0.000000000000000E+000        
  0.000000000000000E+000  0.000000000000000E+000                                
   2.61300000000000       7.989599999999999E-002  0.000000000000000E+000        
  0.000000000000000E+000  0.000000000000000E+000                                
  0.747500000000000       0.277275000000000       0.000000000000000E+000        
  0.000000000000000E+000  0.000000000000000E+000                                
  0.238500000000000       0.504270000000000        1.00000000000000             
  0.000000000000000E+000  0.000000000000000E+000                                
  7.698000000000001E-002  0.353680000000000       0.000000000000000E+000        
   1.00000000000000       0.000000000000000E+000                                
  2.096000000000000E-002  0.000000000000000E+000  0.000000000000000E+000        
  0.000000000000000E+000   1.00000000000000                                     
    3    3                                                                      
  0.661000000000000        1.00000000000000       0.000000000000000E+000        
  0.000000000000000E+000                                                        
  0.199000000000000       0.000000000000000E+000   1.00000000000000             
  0.000000000000000E+000                                                        
  6.040000000000000E-002  0.000000000000000E+000  0.000000000000000E+000        
   1.00000000000000                                                             
    2    2                                                                      
  0.490000000000000        1.00000000000000       0.000000000000000E+000        
  0.163000000000000       0.000000000000000E+000   1.00000000000000             
          9.00000000    1    4    1    1    1    1                              
F #2   0.000000000000000   0.000000000000000  -0.879526224422612                
   11    5                                                                      
   19500.0000000000       5.070000000000000E-004 -1.170000000000000E-004        
  0.000000000000000E+000  0.000000000000000E+000  0.000000000000000E+000        
   2923.00000000000       3.923000000000000E-003 -9.120000000000001E-004        
  0.000000000000000E+000  0.000000000000000E+000  0.000000000000000E+000        
   664.500000000000       2.020000000000000E-002 -4.717000000000000E-003        
  0.000000000000000E+000  0.000000000000000E+000  0.000000000000000E+000        
   187.500000000000       7.901000000000000E-002 -1.908600000000000E-002        
  0.000000000000000E+000  0.000000000000000E+000  0.000000000000000E+000        
   60.6200000000000       0.230439000000000      -5.965500000000000E-002        
  0.000000000000000E+000  0.000000000000000E+000  0.000000000000000E+000        
   21.4200000000000       0.432872000000000      -0.140010000000000             
  0.000000000000000E+000  0.000000000000000E+000  0.000000000000000E+000        
   7.95000000000000       0.349964000000000      -0.176782000000000             
  0.000000000000000E+000  0.000000000000000E+000  0.000000000000000E+000        
   2.25700000000000       4.323300000000000E-002  0.171625000000000             
   1.00000000000000       0.000000000000000E+000  0.000000000000000E+000        
  0.881500000000000      -7.892000000000000E-003  0.605043000000000             
  0.000000000000000E+000  0.000000000000000E+000  0.000000000000000E+000        
  0.304100000000000       2.384000000000000E-003  0.369512000000000             
  0.000000000000000E+000   1.00000000000000       0.000000000000000E+000        
  9.157999999999999E-002  0.000000000000000E+000  0.000000000000000E+000        
  0.000000000000000E+000  0.000000000000000E+000   1.00000000000000             
    6    4                                                                      
   43.8800000000000       1.666500000000000E-002  0.000000000000000E+000        
  0.000000000000000E+000  0.000000000000000E+000                                
   9.92600000000000       0.104472000000000       0.000000000000000E+000        
  0.000000000000000E+000  0.000000000000000E+000                                
   2.93000000000000       0.317260000000000       0.000000000000000E+000        
  0.000000000000000E+000  0.000000000000000E+000                                
  0.913200000000000       0.487343000000000        1.00000000000000             
  0.000000000000000E+000  0.000000000000000E+000                                
  0.267200000000000       0.334604000000000       0.000000000000000E+000        
   1.00000000000000       0.000000000000000E+000                                
  7.360999999999999E-002  0.000000000000000E+000  0.000000000000000E+000        
  0.000000000000000E+000   1.00000000000000                                     
    3    3                                                                      
   3.10700000000000        1.00000000000000       0.000000000000000E+000        
  0.000000000000000E+000                                                        
  0.855000000000000       0.000000000000000E+000   1.00000000000000             
  0.000000000000000E+000                                                        
  0.292000000000000       0.000000000000000E+000  0.000000000000000E+000        
   1.00000000000000                                                             
    2    2                                                                      
   1.91700000000000        1.00000000000000       0.000000000000000E+000        
  0.724000000000000       0.000000000000000E+000   1.00000000000000             
FINISH                                                                          
 
********************************************************************************
 ONE- AND TWO-ELECTRON INTEGRALS OVER SYMMETRY-ADAPTED AOS ARE CALCULATED.

  SPHERICAL HARMONICS ARE USED.
  
  INTEGRALS LESS THAN  0.10E-13 ARE NEGLECTED.

  NUCLEAR REPULSION ENERGY :   18.7711467879 A.U.
  @MOLECU-I, ONE ELECTRON INTEGRALS (CPU/WALL):        0.03/       0.04 SECONDS.
  @TWOEL-I,     195479 INTEGRALS OF SYMMETRY TYPE  I I I I
  @TWOEL-I,     731661 INTEGRALS OF SYMMETRY TYPE  I J I J
  @TWOEL-I,     399068 INTEGRALS OF SYMMETRY TYPE  I I J J
  @TWOEL-I,     472704 INTEGRALS OF SYMMETRY TYPE  I J K L
  @TWOEL-I, TOTAL NUMBER OF 2-E INTEGRALS    1798912.
  @MOLECU-I, TWO ELECTRON INTEGRALS (CPU/WALL):       21.34/       1.16 SECONDS.
 @CHECKOUT-I, Total execution time (CPU/WALL):       21.39/       1.22 seconds.

Running with 20 threads/proc

--executable xvmol finished with status     0 in        1.71 seconds (walltime).
 --invoking executable--
/home/CEISAM/blondel-a/soft/cfour2.1/cfour2.1-serial-mkl/bin/xvmol2ja
 @GETMEM-I,  Allocated   95367 MB of main memory.
 @CHECKOUT-I, Total execution time (CPU/WALL):        0.15/       0.04 seconds.
--executable xvmol2ja finished with status     0 in        0.52 seconds (walltime).
 --invoking executable--
/home/CEISAM/blondel-a/soft/cfour2.1/cfour2.1-serial-mkl/bin/xvscf
  There are   92 functions in the AO basis.

  There are 4 irreducible representations.

       Irrep        # of functions
         1                 38
         2                 22
         3                 22
         4                 10


  Parameters for SCF calculation: 
        SCF reference function:  RHF  
  Maximum number of iterations:  150
     Full symmetry point group: CXv 
     Computational point group: C2v 
        Initial density matrix: MOREAD                 
     SCF convergence tolerance: 10**(- 8)
  DIIS convergence acceleration:  ON
          Latest start for DIIS:   8
                     DIIS order:   6

  Memory information:     434642 words required.
  Fock matrices are constructed from AO integral file.
 @GETMEM-I,  Allocated       3 MB of main memory.
  Initialization and symmetry analysis required      0.002 seconds.

  @INITGES-I, Occupancies from core Hamiltonian:

          Alpha population by irrep:   5    1    1    0
           Beta population by irrep:   5    1    1    0


 total no. of electrons in initial guess :  0.000000000000000E+000
  --------------------------------------------------------------------
  Iteration         Total Energy            Largest Density Difference
  --------------------------------------------------------------------
       0            18.771146787929510              0.0000000000D+00
   current occupation vector 
     5  1  1  0
     5  1  1  0
       1          -105.143551614071399              0.1231108278D+02
   current occupation vector 
     5  1  1  0
     5  1  1  0
       2          -100.032574645601343              0.1948514809D+02
   current occupation vector 
     5  1  1  0
     5  1  1  0
       3          -114.368611021047585              0.1962798231D+02
   current occupation vector 
     5  1  1  0
     5  1  1  0
       4          -105.640377837674109              0.1533843482D+02
   current occupation vector 
     5  1  1  0
     5  1  1  0
       5          -115.622957588022715              0.1535872354D+02
   current occupation vector 
     5  1  1  0
     5  1  1  0
       6          -106.697007275416595              0.1185870706D+02
   current occupation vector 
     5  1  1  0
     5  1  1  0
       7          -115.702320455427767              0.1186899624D+02
   current occupation vector 
     5  1  1  0
     5  1  1  0
       8          -107.253576835400978              0.7871871268D+01
   current occupation vector 
     5  1  1  0
     5  1  1  0
       9          -119.911263948230001              0.7673363292D+01
   current occupation vector 
     5  1  1  0
     5  1  1  0
      10          -123.338412684290049              0.2097325370D+01
   current occupation vector 
     5  1  1  0
     5  1  1  0
      11          -124.060474149105531              0.6436389460D+00
   current occupation vector 
     5  1  1  0
     5  1  1  0
      12          -124.155304650947741              0.3529526943D+00
   current occupation vector 
     5  1  1  0
     5  1  1  0
      13          -124.156959904780322              0.6199672709D-01
   current occupation vector 
     5  1  1  0
     5  1  1  0
      14          -124.157004096059225              0.9141482381D-02
   current occupation vector 
     5  1  1  0
     5  1  1  0
      15          -124.157005658714112              0.1616221346D-02
   current occupation vector 
     5  1  1  0
     5  1  1  0
      16          -124.157005721783449              0.3997026212D-03
   current occupation vector 
     5  1  1  0
     5  1  1  0
      17          -124.157005723118331              0.8028899991D-04
   current occupation vector 
     5  1  1  0
     5  1  1  0
      18          -124.157005723181342              0.1376503240D-04
   current occupation vector 
     5  1  1  0
     5  1  1  0
      19          -124.157005723183815              0.3217403907D-05
   current occupation vector 
     5  1  1  0
     5  1  1  0
      20          -124.157005723184099              0.4733749982D-06
   current occupation vector 
     5  1  1  0
     5  1  1  0
      21          -124.157005723183985              0.6129696772D-07
   current occupation vector 
     5  1  1  0
     5  1  1  0
      22          -124.157005723183701              0.1206506539D-07
   current occupation vector 
     5  1  1  0
     5  1  1  0

  SCF has converged.

 Density matrix saved to file den.dat
 total electron number:   14.0000000000000     
     E(SCF)=      -124.157005723183417              0.4016935451D-08

  Eigenvector printing suppressed.

 @PUTMOS-I, Writing converged MOs to NEWMOS. 
 @PUTMOS-I, Symmetry   1 Full Blocks  9 Partial Blocksize   2
 @PUTMOS-I, Symmetry   2 Full Blocks  5 Partial Blocksize   2
 @PUTMOS-I, Symmetry   3 Full Blocks  5 Partial Blocksize   2
 @PUTMOS-I, Symmetry   4 Full Blocks  2 Partial Blocksize   2
 @PUTFOCK-I, Writing converged Fock matrix to NEWFOCK. 
 @PUTFOCK-I, Symmetry   1 Full Blocks  9 Partial Blocksize   2
 @PUTFOCK-I, Symmetry   2 Full Blocks  5 Partial Blocksize   2
 @PUTFOCK-I, Symmetry   3 Full Blocks  5 Partial Blocksize   2
 @PUTFOCK-I, Symmetry   4 Full Blocks  2 Partial Blocksize   2


 
  ORBITAL EIGENVALUES (ALPHA)  (1H = 27.2113834 eV)

       MO #        E(hartree)               E(eV)           FULLSYM    COMPSYM
       ----   --------------------   --------------------   -------   ---------
    1     1         -26.3794305454        -717.8207984450     SG+        A1 (1)
    2     2          -7.7112983066        -209.8350947336     SG+        A1 (1)
    3     3          -1.6981084444         -46.2078799362     SG+        A1 (1)
    4     4          -0.8527578988         -23.2047221313     SG+        A1 (1)
    5    39          -0.7437994072         -20.2398108416      PI        B1 (2)
    6    61          -0.7437994072         -20.2398108416      PI        B2 (3)
    7     5          -0.4059918617         -11.0476002051     SG+        A1 (1)
  +++++++++++++++++++++++++++++++++++++++++++++++++++++++++++++++++++++++++++++
    8    62           0.0399553971           1.0872416307      PI        B2 (3)
    9    40           0.0399553971           1.0872416307      PI        B1 (2)
   10     6           0.0484302897           1.3178551821     SG+        A1 (1)
   11     7           0.0668044096           1.8178404024     SG+        A1 (1)
   12    63           0.1144888470           3.1153999101      PI        B2 (3)
   13    41           0.1144888470           3.1153999101      PI        B1 (2)
   14     8           0.1664104090           4.5282574403     SG+        A1 (1)
   15    83           0.1867839912           5.0826507965      DE        A2 (4)
   16     9           0.1867839912           5.0826507965      DE        A1 (1)
   17    10           0.2017315044           5.4893933099     SG+        A1 (1)
   18    42           0.2070572881           5.6343152510      PI        B1 (2)
   19    64           0.2070572881           5.6343152510      PI        B2 (3)
   20    43           0.2675214711           7.2796293170      PI        B1 (2)
   21    65           0.2675214711           7.2796293170      PI        B2 (3)
   22    11           0.3117071952           8.4819839979     SG+        A1 (1)
   23    12           0.3944069249          10.7323580489     SG+        A1 (1)
   24    44           0.4161690204          11.3245347744      PI        B1 (2)
   25    66           0.4161690204          11.3245347744      PI        B2 (3)
   26    13           0.5427369183          14.7686223695     SG+        A1 (1)
   27    14           0.6169618859          16.7883864198     SG+        A1 (1)
   28    84           0.6336788141          17.2432771624      DE        A2 (4)
   29    15           0.6336788141          17.2432771624      DE        A1 (1)
   30    45           0.6649497329          18.0942021246      PH        B1 (2)
   31    67           0.6649497329          18.0942021246      PH        B2 (3)
   32    85           0.6754509320          18.3799542793      DE        A2 (4)
   33    16           0.6754509320          18.3799542793      DE        A1 (1)
   34    46           0.7151480422          19.4601675642      PI        B1 (2)
   35    68           0.7151480422          19.4601675642      PI        B2 (3)
   36    17           0.7927946916          21.5730403100     SG+        A1 (1)
   37    47           0.8335719605          22.6826462077      PI        B1 (2)
   38    69           0.8335719605          22.6826462077      PI        B2 (3)
   39    18           1.0021284268          27.2693008373     SG+        A1 (1)
   40    48           1.0640383301          28.9539549516      PI        B1 (2)
   41    70           1.0640383301          28.9539549516      PI        B2 (3)
   42    19           1.1441482359          31.1338563143      DE        A1 (1)
   43    86           1.1441482359          31.1338563143      DE        A2 (4)
   44    20           1.1770352533          32.0287575525     SG+        A1 (1)
   45    49           1.4891776811          40.5225848319      PI        B1 (2)
   46    71           1.4891776811          40.5225848319      PI        B2 (3)
   47    21           1.5042086173          40.9315973997     SG+        A1 (1)
   48    50           1.7876812549          48.6452800228      PI        B1 (2)
   49    72           1.7876812549          48.6452800229      PI        B2 (3)
   50    22           1.9939859746          54.2591168483     SG+        A1 (1)
   51    87           2.0626804185          56.1283877000      DE        A2 (4)
   52    23           2.0626804185          56.1283877000      DE        A1 (1)
   53    24           2.0721993025          56.3874097012     SG+        A1 (1)
   54    51           2.1412284436          58.2657881249      PI        B1 (2)
   55    73           2.1412284436          58.2657881249      PI        B2 (3)
   56    52           2.1871595403          59.5156368094      PH        B1 (2)
   57    74           2.1871595403          59.5156368094      PH        B2 (3)
   58    25           2.1931371658          59.6782962666      DE        A1 (1)
   59    88           2.1931371658          59.6782962666      DE        A2 (4)
   60    26           2.2925524856          62.3835246492     SG+        A1 (1)
   61    53           2.4599494298          66.9386270776      PI        B1 (2)
   62    75           2.4599494298          66.9386270776      PI        B2 (3)
   63    54           2.9253487418          79.6027861926      PH        B1 (2)
   64    76           2.9253487418          79.6027861926      PH        B2 (3)
   65    27           3.0281004176          82.3988014364      DE        A1 (1)
   66    89           3.0281004176          82.3988014364      DE        A2 (4)
   67    28           3.0380443913          82.6693907171     SG+        A1 (1)
   68    55           3.2720181883          89.0361414144      PI        B1 (2)
   69    77           3.2720181883          89.0361414144      PI        B2 (3)
   70    29           3.2878854400          89.4679112825     SG+        A1 (1)
   71    30           3.4019828213          92.5726588715      DE        A1 (1)
   72    90           3.4019828213          92.5726588715      DE        A2 (4)
   73    56           4.1202400536         112.1174317991      PI        B1 (2)
   74    78           4.1202400536         112.1174317991      PI        B2 (3)
   75    31           4.3722937394         118.9761612799     SG+        A1 (1)
   76    79           5.5800308617         151.8403591616      PI        B2 (3)
   77    57           5.5800308617         151.8403591616      PI        B1 (2)
   78    32           5.8614162112         159.4972437892     SG+        A1 (1)
   79    33           7.8471675291         213.5322842372     SG+        A1 (1)
   80    58           8.7651755428         238.5125522629      PH        B1 (2)
   81    80           8.7651755428         238.5125522629      PH        B2 (3)
   82    91           8.9334787553         243.0923155051      DE        A2 (4)
   83    34           8.9334787553         243.0923155051      DE        A1 (1)
   84    59           9.1131998672         247.9827755884      PI        B1 (2)
   85    81           9.1131998672         247.9827755884      PI        B2 (3)
   86    35           9.3114768119         253.3781655476     SG+        A1 (1)
   87    92           9.3425688114         254.2242218688      DE        A2 (4)
   88    36           9.3425688114         254.2242218688      DE        A1 (1)
   89    60           9.5351365076         259.4642552804      PI        B1 (2)
   90    82           9.5351365076         259.4642552804      PI        B2 (3)
   91    37           9.6676096273         263.0690321302     SG+        A1 (1)
   92    38          15.3037395060         416.4359231509     SG+        A1 (1)


  VSCF finished.

 @CHECKOUT-I, Total execution time (CPU/WALL):        5.52/       0.72 seconds.
--executable xvscf finished with status     0 in        1.21 seconds (walltime).
 --invoking executable--
/home/CEISAM/blondel-a/soft/cfour2.1/cfour2.1-serial-mkl/bin/xvtran
 @GETMEM-I,  Allocated   95367 MB of main memory.
  Full RHF integral transformation
  The following   2 MOs will be dropped:
    1  2
  There are  90 active molecular orbitals.
  Transformation of IIII integrals :
  1 pass through the AO integral file was required.
      195479 AO integrals were read.
      264010 MO integrals were written to HF2.
  Transformation of IIJJ integrals :
  1 pass through the AO integral file was required.
      399068 AO integrals were read.
      451524 MO integrals were written to HF2.
  Transformation of IJIJ integrals :
  1 pass through the AO integral file was required.
      731661 AO integrals were read.
      801321 MO integrals were written to HF2.
  Transformation of IJKL integrals :
  1 pass through the AO integral file was required.
      472704 AO integrals were read.
      495796 MO integrals were written to HF2.
  Summary of active molecular orbitals: 
------------------------------------------------------------------------
 
  Index      Eigenvalue    Symmetry    Index      Eigenvalue    Symmetry
------------------------------------------------------------------------
     1        -1.6981084        1        46         0.8335720        2
     2        -0.8527579        1        47         1.0640383        2
     3        -0.4059919        1        48         1.4891777        2
     4        -0.7437994        2        49         1.7876813        2
     5        -0.7437994        3        50         2.1412284        2
     6         0.0484303        1        51         2.1871595        2
     7         0.0668044        1        52         2.4599494        2
     8         0.1664104        1        53         2.9253487        2
     9         0.1867840        1        54         3.2720182        2
    10         0.2017315        1        55         4.1202401        2
    11         0.3117072        1        56         5.5800309        2
    12         0.3944069        1        57         8.7651755        2
    13         0.5427369        1        58         9.1131999        2
    14         0.6169619        1        59         9.5351365        2
    15         0.6336788        1        60         0.0399554        3
    16         0.6754509        1        61         0.1144888        3
    17         0.7927947        1        62         0.2070573        3
    18         1.0021284        1        63         0.2675215        3
    19         1.1441482        1        64         0.4161690        3
    20         1.1770353        1        65         0.6649497        3
    21         1.5042086        1        66         0.7151480        3
    22         1.9939860        1        67         0.8335720        3
    23         2.0626804        1        68         1.0640383        3
    24         2.0721993        1        69         1.4891777        3
    25         2.1931372        1        70         1.7876813        3
    26         2.2925525        1        71         2.1412284        3
    27         3.0281004        1        72         2.1871595        3
    28         3.0380444        1        73         2.4599494        3
    29         3.2878854        1        74         2.9253487        3
    30         3.4019828        1        75         3.2720182        3
    31         4.3722937        1        76         4.1202401        3
    32         5.8614162        1        77         5.5800309        3
    33         7.8471675        1        78         8.7651755        3
    34         8.9334788        1        79         9.1131999        3
    35         9.3114768        1        80         9.5351365        3
    36         9.3425688        1        81         0.1867840        4
    37         9.6676096        1        82         0.6336788        4
    38        15.3037395        1        83         0.6754509        4
    39         0.0399554        2        84         1.1441482        4
    40         0.1144888        2        85         2.0626804        4
    41         0.2070573        2        86         2.1931372        4
    42         0.2675215        2        87         3.0281004        4
    43         0.4161690        2        88         3.4019828        4
    44         0.6649497        2        89         8.9334788        4
    45         0.7151480        2        90         9.3425688        4
------------------------------------------------------------------------
  -1.69810844442986      -0.852757898789432      -0.405991861667248     
 -0.743799407183285      -0.743799407183282       4.843028973158433E-002
  6.680440960039925E-002  0.166410408973944       0.186783991160905     
  0.201731504393579       0.311707195226777       0.394406924891986     
  0.542736918309644       0.616961885878475       0.633678814080916     
  0.675450932026154       0.792794691577001        1.00212842678438     
   1.14414823592895        1.17703525328672        1.50420861732792     
   1.99398597457032        2.06268041851982        2.07219930248780     
   2.19313716577088        2.29255248556026        3.02810041757589     
   3.03804439127250        3.28788543997613        3.40198282133259     
   4.37229373938700        5.86141621117267        7.84716752905634     
   8.93347875525801        9.31147681185383        9.34256881143333     
   9.66760962730731        15.3037395059767       3.995539714954722E-002
  0.114488846975629       0.207057288053611       0.267521471070660     
  0.416169020439964       0.664949732933585       0.715148042204099     
  0.833571960464854        1.06403833006256        1.48917768112645     
   1.78768125485458        2.14122844356644        2.18715954034723     
   2.45994942975253        2.92534874182709        3.27201818832949     
   4.12024005362084        5.58003086170258        8.76517554277861     
   9.11319986724335        9.53513650762621       3.995539714954512E-002
  0.114488846975627       0.207057288053623       0.267521471070822     
  0.416169020440053       0.664949732933587       0.715148042204141     
  0.833571960464948        1.06403833006261        1.48917768112654     
   1.78768125485508        2.14122844356648        2.18715954034724     
   2.45994942975276        2.92534874182710        3.27201818832951     
   4.12024005362130        5.58003086170229        8.76517554277862     
   9.11319986724341        9.53513650762627       0.186783991160904     
  0.633678814080905       0.675450932026149        1.14414823592897     
   2.06268041851982        2.19313716577089        3.02810041757590     
   3.40198282133262        8.93347875525799        9.34256881143322     
 @CHECKOUT-I, Total execution time (CPU/WALL):        9.09/       0.61 seconds.
--executable xvtran finished with status     0 in        1.10 seconds (walltime).
 --invoking executable--
/home/CEISAM/blondel-a/soft/cfour2.1/cfour2.1-serial-mkl/bin/xintprc
 @GETMEM-I,  Allocated   95367 MB of main memory.
  Processing integrals for CCSD calculation.
  @GMOIAA-I, Processing MO integrals for spin case AA.
  @GMOIAA-I, Generation of integral list completed.
                      TYPE                NUMBER
                      ----               --------
                      PPPP               1595758
                      PPPH                377335
                      PPHH                 23176
                      PHPH                 14514
                      PHHH                  1819
                      HHHH                    49

                     TOTAL               2012651

  @FORMT2-I, Second-order MP correlation energies:
            ------------------------------------------------
            E(SCF)                  =   -124.157005723183 a.u.
            E2(AA)                  =     -0.040357846738 a.u.
            E2(AB)                  =     -0.248636120365 a.u.
            E2(TOT)                 =     -0.329351813842 a.u.
            Total MP2 energy        =   -124.486357537025 a.u.
            ------------------------------------------------
   Largest T2 amplitudes for spin case AB:
       _       _                 _       _                 _       _
   i   j   a   b             i   j   a   b             i   j   a   b
-----------------------------------------------------------------------------
[  3   3  61  61]-0.04889 [  3   3  40  40]-0.04889 [  3   3  40  39]-0.02338
[  3   3  39  40]-0.02338 [  3   3  61  60]-0.02338 [  3   3  60  61]-0.02338
[  3   3  13  13]-0.02209 [  3   3  43  40]-0.02075 [  3   3  40  43]-0.02075
[  3   3  64  61]-0.02075 [  3   3  61  64]-0.02075 [  3   3  13  12] 0.01672
[  3   3  12  13] 0.01672 [  3   3  14  14]-0.01664 [  3   3  12  12]-0.01599
-----------------------------------------------------------------------------
   Norm of T2AB vector (    47537 symmetry allowed elements):  0.2477143798.
-----------------------------------------------------------------------------
 @CHECKOUT-I, Total execution time (CPU/WALL):        4.06/       0.62 seconds.
--executable xintprc finished with status     0 in        1.10 seconds (walltime).
  calling xncc 
 --invoking executable--
/home/CEISAM/blondel-a/soft/cfour2.1/cfour2.1-serial-mkl/bin/xncc
 @GETMEM-I,  Allocated       7 MB of main memory.

Running with 20 threads/proc

Following the lowest-energy eigenvector.
Using discrete restarting.
Using an orthogonal subspace.
Orthogonalizing against previous roots.
Using Modified Gram-Schmidt orthogonalization.

Using DIIS to accelerate the convergence of T1 and T2
Using immediate high-order contributions
Damping factor for T3: 0.000000
Damping factor for T4: 0.000000

Transposes are coarse-threaded

Memory limit:                 93.132 GiB
Minimum memory requirement:   29.980 MiB
Compromise memory amount:     49.350 MiB
Optimal memory requirement:  161.974 MiB

List              Location   Size        Cached Hunks Est. Disk I/O
----------------- ---------- ----------- ------ ----- -------------

           HR_DAV      470:1   11.276 MiB    Yes     -   621.579 MiB
                R        471  353.609 KiB    Yes     -    31.079 MiB
            R_DAV      470:0   11.276 MiB    Yes     -     1.177 GiB
           T_DIIS       70:0    1.819 MiB    Yes     -    32.738 MiB
           Z_DIIS       70:1    1.819 MiB    Yes     -    54.563 MiB
          <AI|bj>         18  371.383 KiB    Yes     -    14.244 MiB
          <Ab|Cd>        233  100.632 MiB    Yes     -     3.046 GiB
          <Ab|Ci>         30    5.996 MiB    Yes     -     1.083 GiB
          <Ab|Ij>         16  371.383 KiB    Yes     -    95.747 MiB
          <Ai|Bj>         25  371.383 KiB    Yes     -    11.968 MiB
          <Aj|bI>         21  371.383 KiB     No     -         0   B
          <Ij|Ka>         10   23.180 KiB    Yes     -     5.365 MiB
          <Ij|Kl>         13    1.539 KiB    Yes     -    24.625 KiB
           DD(AI)      448:8    1.102 KiB    Yes     -    13.250 KiB
        DD(Ab,Ij)        450  371.383 KiB    Yes     -     5.512 MiB
            F(EA)       92:0   16.180 KiB    Yes     -     2.670 MiB
            F(EM)       93:0    1.102 KiB    Yes     -    88.125 KiB
            F(MI)       91:0       88   B    Yes     -    15.812 KiB
           HR(AI)      490:2    1.102 KiB    Yes     -   844.688 KiB
        HR(Ab,Ij)        463  371.383 KiB    Yes     -   382.409 MiB
            R(AI)      490:0    1.102 KiB    Yes     -     2.438 MiB
         R(Ab,Ij)        446  371.383 KiB    Yes     -     1.040 GiB
            T(AI)       90:0    1.102 KiB    Yes     -   411.984 KiB
         T(Ab,Ij)         46  371.383 KiB    Yes     -    96.835 MiB
         W(Mn,Ij)         53    1.539 KiB    Yes     -    72.336 KiB
        W~(Ab,Ej)        130    5.996 MiB    Yes     -   113.924 MiB
        W~(EM,bj)         56  371.383 KiB    Yes     -    37.191 MiB
        W~(Em,Bj)         58  371.383 KiB    Yes     -    35.905 MiB
        W~(Ij,Mb)        110   23.180 KiB    Yes     -     1.449 MiB
       W~~(EM,bj)         76  371.383 KiB    Yes     -     2.901 MiB
       W~~(Em,Bj)         78  371.383 KiB    Yes     -     2.901 MiB
         X(Ab,Ej)        430    5.996 MiB     No     -         0   B
         X(Ab,Ij)        416  371.383 KiB     No     -         0   B
            X(EA)      492:0   16.180 KiB    Yes     -     1.240 MiB
            X(EM)      493:0    1.102 KiB    Yes     -    24.844 KiB
         X(EM,bj)        418  371.383 KiB     No     -         0   B
         X(Ef,Am)        469    5.996 MiB     No     -         0   B
         X(Em,Bj)        425  371.383 KiB     No     -         0   B
         X(Ij,Mb)        410   23.180 KiB    Yes     -   933.750 KiB
            X(MI)      491:0       88   B    Yes     -     4.219 KiB
         X(Mn,Ie)        465   23.180 KiB     No     -         0   B
         X(Mn,Ij)        413    1.539 KiB    Yes     -    36.562 KiB
            Z(AI)       90:2    1.102 KiB    Yes     -   165.234 KiB
         Z(Ab,Ij)         63  371.383 KiB    Yes     -    54.402 MiB

Simulation and memory analysis took 0.125 seconds

MP2 correlation energy:  -0.329351813842058

Non-iterative calculation of MP2 took 0.273 cpu seconds and 0.017 walltime seconds at 0.134 Gflops/sec

Total MP2 energy: -124.486357537025469

Beginning iterative solution of CCSD equations:

It.  Correlation Energy T1 Residual T2 Residual CPU Time (s) Walltime (s)
-------------------------------------------------------------------------
  1  -0.328270868047185 1.93627e-02 1.82569e-02        2.257        0.126
  2  -0.338494099494931 3.53187e-03 9.85843e-03        0.989        0.050
  3  -0.338819687210855 4.29958e-03 5.33957e-03        0.953        0.048
  4  -0.340888367669050 6.33152e-04 9.70182e-04        0.863        0.043
  5  -0.341036584758708 1.76567e-04 3.09844e-04        0.777        0.039

   A    I                     A    I                     A    I                  
-------------------------- -------------------------- -------------------------- 
  12    6  0.0226564303778   27    7  0.0124270098186   22    7 -0.0088030930331 
  13    5  0.0226564303778   24    5  0.0102988350959   27    4 -0.0067802332391 
  17    7  0.0147204756190   25    6  0.0102988350959   10    7  0.0060060786432 
   9    5  0.0125216378044   19    6  0.0094637410011   11    7 -0.0052421879536 
   8    6  0.0125216378044   18    5  0.0094637410011   76    6  0.0047982833988 

   A    B    I    J                     A    B    I    J                  
------------------------------------ ------------------------------------ 
  12   12    7    7 -0.0886630154341   25   12    7    7 -0.0405427140390 
  13   13    7    7 -0.0886630154341   12   25    7    7 -0.0405427140390 
  13    9    7    7 -0.0416979843232   26   26    7    7 -0.0277018949258 
   9   13    7    7 -0.0416979843232   26   23    7    7  0.0219870512333 
  12    8    7    7 -0.0416979843232   23   26    7    7  0.0219870512333 
   8   12    7    7 -0.0416979843232   24   24    7    7 -0.0213631731135 
  24   13    7    7 -0.0405427140390   25   25    7    7 -0.0213631731135 
  13   24    7    7 -0.0405427140390 

It.  Correlation Energy T1 Residual T2 Residual CPU Time (s) Walltime (s)
-------------------------------------------------------------------------
  6  -0.341031638911281 5.70177e-05 3.75391e-05        0.942        0.047
  7  -0.341031614347946 2.45913e-05 8.43750e-06        0.761        0.038
  8  -0.341030400922263 7.33171e-06 2.50806e-06        0.918        0.046
  9  -0.341030149721496 2.69924e-06 1.70212e-06        0.770        0.039
 10  -0.341030587826979 6.82205e-07 1.11169e-06        0.991        0.050

   A    I                     A    I                     A    I                  
-------------------------- -------------------------- -------------------------- 
  12    6  0.0225619337917    8    6  0.0124614049217   22    7 -0.0088339105168 
  13    5  0.0225619337917   24    5  0.0102661970829   27    4 -0.0067529975336 
  17    7  0.0147886692531   25    6  0.0102661970828   10    7  0.0060244908636 
  27    7  0.0124741427503   19    6  0.0094665829219   11    7 -0.0053623997445 
   9    5  0.0124614049217   18    5  0.0094665829219   76    6  0.0047947493239 

   A    B    I    J                     A    B    I    J                  
------------------------------------ ------------------------------------ 
  12   12    7    7 -0.0887518283773   25   12    7    7 -0.0405726634214 
  13   13    7    7 -0.0887518283773   12   25    7    7 -0.0405726634214 
  13    9    7    7 -0.0417553573104   26   26    7    7 -0.0276748051317 
   9   13    7    7 -0.0417553573104   26   23    7    7  0.0219600297610 
  12    8    7    7 -0.0417553573104   23   26    7    7  0.0219600297610 
   8   12    7    7 -0.0417553573104   24   24    7    7 -0.0213655878846 
  24   13    7    7 -0.0405726634214   25   25    7    7 -0.0213655878845 
  13   24    7    7 -0.0405726634214 

It.  Correlation Energy T1 Residual T2 Residual CPU Time (s) Walltime (s)
-------------------------------------------------------------------------
 11  -0.341030712621045 1.61497e-07 6.52850e-07        0.920        0.046
 12  -0.341030809532227 1.05749e-07 3.01768e-07        0.956        0.048
 13  -0.341030839870794 4.76198e-08 1.05988e-07        0.783        0.039
 14  -0.341030851210795 2.50034e-08 2.39107e-08        0.974        0.049

CCSD iterations converged in 14 cycles and 0.709 seconds (0.051 s/it.) at 6.557 Gflops/sec

Total CCSD energy: -124.498036574394206

             _
Formation of H took 0.097 seconds at 6.829 Gflops/sec

Searching for 1 roots in irrep 2

EOMEE-CCSD guess vector:

   A    I                  
-------------------------- 
   9    7  1.0000000000000 

Beginning iterative solution of EOMEE-CCSD equations:

It.  Correlation Energy R1 Residual R2 Residual CPU Time (s) Walltime (s)
-------------------------------------------------------------------------
  1   0.349988452921488 2.91380e-02 4.98697e-02        0.906        0.046
  2   0.328764544115038 1.38452e-01 4.45387e-02        0.609        0.031
  3   0.275964194630586 5.44076e-02 2.19937e-02        0.625        0.031
  4   0.249723574667114 3.01243e-02 1.75651e-02        0.654        0.033
  5   0.239843110086963 1.04783e-02 3.73478e-03        1.087        0.055
  6   0.237918698152303 4.29964e-03 3.39706e-03        0.775        0.039
  7   0.237560806882483 1.32774e-03 1.32752e-03        0.737        0.037
Locking on root: 0.237541929065591
  8   0.237541929065591 3.05472e-04 3.24034e-04        0.773        0.039
  9   0.237540940785837 1.20118e-04 1.73820e-04        0.802        0.040
 10   0.237542335060192 3.90020e-05 5.37753e-05        0.838        0.042
 11   0.237542585017681 2.28508e-05 1.42359e-05        0.881        0.044
 12   0.237542447619160 5.00370e-06 5.08603e-06        0.902        0.045

EOMEE-CCSD iterations converged in 12 cycles and 0.481 seconds (0.040 s/it.) at 10.599 Gflops/sec

EOMEE-CCSD excitation energy:   0.237542447619163 (  6.463858615939449 eV)
Total EOMEE-CCSD energy:      -124.260494126775043

Converged root:

   A    I                     A    I                     A    I                  
-------------------------- -------------------------- -------------------------- 
  13    7  0.5097489170632   13    4  0.0483020836789   17    5 -0.0171036516302 
   9    7  0.4300257024566   34    7  0.0286965286655   20    4  0.0168894317087 
  24    7  0.0964329224651   24    4  0.0259240266721   37    7  0.0167126185562 
  18    7  0.0754115058492    9    4  0.0243115251961   28    6  0.0164265791891 
  20    7  0.0660075324469   48    7  0.0173099244905   29    5  0.0164265791891 

   A    B    I    J                     A    B    I    J                  
------------------------------------ ------------------------------------ 
   9   26    7    7 -0.0407493642247    9   23    7    7  0.0303983641405 
  26    9    7    7 -0.0407493642247   23    9    7    7  0.0303983641405 
  13   26    7    7 -0.0395650672193   13   33    7    7  0.0301700073765 
  26   13    7    7 -0.0395650672193   33   13    7    7  0.0301700073765 
  13   17    7    7 -0.0356276486206   32   12    7    7  0.0301700073765 
  17   13    7    7 -0.0356276486206   12   32    7    7  0.0301700073765 
  13   27    7    7 -0.0342993428648    9   11    7    7 -0.0279359258991 
  27   13    7    7 -0.0342993428648 

 @CHECKOUT-I, Total execution time (CPU/WALL):       28.89/       1.71 seconds.
--executable xncc finished with status     0 in        2.28 seconds (walltime).
  The final electronic energy is      -124.260494126775043 a.u. 
  This computation required                           10.38 seconds (walltime).
