 --invoking executable--
/home/CEISAM/blondel-a/soft/cfour2.1/cfour2.1-serial-mkl/bin/xjoda


   *************************************************************************
         <<<     CCCCCC     CCCCCC   |||     CCCCCC     CCCCCC   >>>
       <<<      CCC        CCC       |||    CCC        CCC         >>>
      <<<      CCC        CCC        |||   CCC        CCC            >>>
    <<<        CCC        CCC        |||   CCC        CCC              >>>
      <<<      CCC        CCC        |||   CCC        CCC            >>>
       <<<      CCC        CCC       |||    CCC        CCC         >>>
         <<<     CCCCCC     CCCCCC   |||     CCCCCC     CCCCCC   >>>
   *************************************************************************

     ****************************************************************
     * CFOUR Coupled-Cluster techniques for Computational Chemistry *
     ****************************************************************
 

   Department of Chemistry                Institut fuer Physikalische Chemie
   University of Florida                  Universitaet Mainz
   Gainesville, FL 32611, USA             D-55099 Mainz, Germany

   Department of Chemistry                Fakultaet fuer Chemie und Biowiss.
   Johns Hopkins University               Karlsruher Institut fuer Technologie
   Baltimore, MD 21218, USA               D-76131 Karlsruhe, Germany

   Department of Chemistry                Department of Physical Chemistry
   Southern Methodist University          Eotvos Lorand University
   Dallas, TX 75275, USA                  H-1053 Budapest, Hungary

 
                       Version 2.1
 
                     nazare097                                         
                     Thu Mar 18 20:41:37 CET 2021                      
                     integer*8 version is running
 
********************************************************************************
*                          Input from ZMAT file                                *
********************************************************************************
Ketene -GS                                                                      
B     0.0000000000            0.0000000000            0.0000000000              
F     0.0000000000            0.0000000000            2.3972962605              
                                                                                
*CFOUR(COORD=CARTESIAN,UNITS=BOHR                                               
       MEMORY=100,MEM_UNIT=GB,CC_PROG=NCC                                       
       FROZEN_CORE=1                                                            
       CALC=CCSD,BASIS=AUG-PVDZ                                                 
       SCF_CONV=8,CC_CONV=7,ESTATE_CONV=5,ESTATE_MAXCYC=120                     
       EXCITE=EOMEE,ESTATE_SYM=0/1/0/0)                                         
                                                                                
********************************************************************************
    -------------------------------------------------------------------
                    CFOUR Control Parameters 
    -------------------------------------------------------------------
        External           Internal           Value            Units
          Name               Name
    -------------------------------------------------------------------
       ABCDTYPE             IABCDT         STANDARD    [  0]    ***   
       ANHARMONIC           IANHAR         OFF         [  0]    ***   
       ANH_ALGORIT          IANALG         STANDARD    [  0]    ***   
       ANH_DERIVAT          IANDER         SECOND      [  1]    ***   
       ANH_MODE             ANHMOD         VIBRATION   [  0]    ***   
       ANH_STEPSIZ          ICUBST             50000          x 10-6  
       ANH_SYMMETR          IANHSM         ABELIAN     [  0]    ***   
       AO_LADDERS           IAOLAD         SINGLEPASS  [  1]    ***   
       AV_SCF               IAVSCF         OFF         [  0]    ***   
       BASIS                IBASIS         AUG-PVDZ    [ 33]    ***   
       BOTHVECTORS          BOTHVC         OFF         [  0]    ***   
       BOX_POTENT           IPIAB          OFF         [  0]    ***   
       BREIT                IBREIT         OFF         [  0]    ***   
       BRUCK_CONV           IBRTOL          10D-  4             ***   
       BRUECKNER            IBRKNR         OFF         [  0]    ***   
       BUFFERSIZE           IBUFFS              4096            ***   
       CACHE_RECS           ICHREC             10               ***   
       CALCLEVEL            ICLLVL         CCSD        [ 10]    ***   
       CCORBOPT             ICCORB         OFF         [  0]  x 0.01  
       CC_CONV              ICCCNV          10D-  7             ***   
       CC_EXPORDER          ICCEOR              5               ***   
       CC_EXTRAPOL          ICCEXT         DIIS        [  1]    ***   
       CC_GUESS             ICCGES         MP2         [  0]    ***   
       CC_MAXCYC            ICCCYC            100              cycles 
       CC_PROGRAM           ICCPRO         NCC         [  5]    ***   
       CHARGE               ICHRGE              0               ***   
       CHOLESKY             ICHOLE         OFF         [  0]    ***   
       CIS_CONV             ICISTL              5               ***   
       COMM_SIZE            IPSIZE            ***               ***   
       CONSTANT             ICONST         OLD         [  1]    ***   
       CONTINUUM            ICONTU         NONE        [  0]    ***   
       CONTRACTION          ICNTYP         GENERAL     [  1]    ***   
       COORDINATES          ICOORD         CARTESIAN   [  1]    ***   
       CPHF_CONVER          ICPHFT          10D- 16             ***   
       CPHF_MAXCYC          ICPHFC             64              cycles 
       CUBIC                ICUBIC         OFF         [  0]    ***   
       CURVILINEAR          ICURVY         OFF         [  0]    ***   
       DBOC                 IDBOC          OFF         [  0]    ***   
       DCT                  IDCT           OFF         [  0]    ***   
       DERIV_LEV            IDRLVL         ZERO        [  0]    ***   
       DEVMEM_SIZE          IDVMEM         *********           MByte  
       DIAG_MRCC            IEOMST          10D-  0             ***   
       DIFF_TYPE            IDIFTY         RELAXED     [  0]    ***   
       DIRECT               IDIRCT         OFF         [  0]    ***   
       DROPMO               IDRPMO      NONE         
       ECP                  IECP           OFF         [  0]    ***   
       EIGENVECTOR          IVEC                1               ***   
       EL_ANHARM            IELANH         OFF         [  0]    ***   
       EOMFOLLOW            IEOMSR         ENERGY      [  0]    ***   
       EOMIP                IEOMIP         OFF         [  0]    ***   
       EOMLEVEL             HBARFM         SAME        [  0]    ***   
       EOM_MRCC             IMRCCE         NEW         [  1]    ***   
       EOM_NONIT            EOMNON         OFF         [  0]    ***   
       EOM_NSING            IEOMSI          10D-  0             ***   
       EOM_NSTATES          IMRCCD         DAVIDSON    [  0]    ***   
       EOM_NTRIP            IEOMTR          10D-  0             ***   
       EOM_ORDER            IEXORD         ENERGY      [  0]    ***   
       EOM_PROPSTA          IEOMST              0               ***   
       ESTATE_CONV          IEXTOL          10D-  5             ***   
       ESTATE_DIAG          IEXDIG         ITERATIVE   [  0]    ***   
       ESTATE_LOCK          IESLOC         ON          [  1]    ***   
       ESTATE_MAXC          IEXMXC            120               ***   
       ESTATE_PROP          IEXPRP         OFF         [  0]    ***   
       ESTATE_SYM           IEXSYM   0,  1,  0,  0,
       EVAL_HESS            IRECAL              0            # of cyc.
       EXCITATION           IEXCIT              0               ***   
       EXCITE               IEXCIT         EOMEE       [  3]    ***   
       EXTERN_POT           IEXPOT         OFF         [  0]    ***   
       FCGRADNEW            IFCGNW         OFF         [  0]    ***   
       FC_FIELD             IFINFC              0             x 10-6  
       FD_CALTYPE           IFDCAL         GRADONLY    [  0]    ***   
       FD_PROJECT           IFDPRJ         OFF         [  1]    ***   
       FD_STEPSIZE          IDISFD              0            10-4 bohr
       FD_USEGROUP          IFDGRP         FULL        [  0]    ***   
       FILE_RECSIZ          IFLREC              4096           words  
       FINITE_PERT          IFIPER              0             x 10-6  
       FIXGEOM              IFIXGM         OFF         [  0]    ***   
       FOCK                 IFOCK          AO          [  1]    ***   
       FREQ_ALGORI          IVIALG         STANDARD    [  0]    ***   
       FROZEN_CORE          IFROCO         ON          [  1]    ***   
       GAMMA_ABCD           IGABCD         STORE       [  0]    ***   
       GAMMA_ABCI           IGABCI         STORE       [  0]    ***   
       GENBAS_1             IGNBS1              0               ***   
       GENBAS_2             IGNBS2              0               ***   
       GENBAS_3             IGNBS3              0               ***   
       GENBAS_4             IGNBS4              0               ***   
       GEO_CONV             ICONTL              5              H/bohr 
       GEO_MAXCYC           IOPTCY             50               ***   
       GEO_MAXSTEP          IMXSTP            300            millibohr
       GEO_METHOD           INR            SINGLE_POINT[  5]    ***   
       GIAO                 IGIAO          OFF         [  1]    ***   
       GIMIC                IGIMIC         OFF         [  0]    ***   
       GRID                 IGRID          OFF         [  0]    ***   
       GRID_ALGO            IGALGO         SERIAL      [  0]    ***   
       GUESS                IGUESS         MOREAD      [  0]    ***   
       HBAR                 IHBAR          ON          [  1]    ***   
       HESS_TYPE            IHESTP         SCF         [  0]    ***   
       HF2_FILE             IHF2Fl         USE         [  1]    ***   
       HFSTABILITY          ISTABL         OFF         [  0]    ***   
       INCORE               INCORE         OFF         [  0]    ***   
       INPUT_MRCC           IMRCC          ON          [  1]    ***   
       INTEGRALS            INTTYP         VMOL        [  1]    ***   
       JODA_PRINT           IJPRNT              0               ***   
       KEYWORD_OUT          IDMPKW         NO          [  0]    ***   
       LINDEP_TOL           ILINDP              8               ***   
       LINEQ_CONV           IZTACN          10D-  7           cycles  
       LINEQ_EXPOR          ILMAXD              5               ***   
       LINEQ_MAXCY          ILMAXC            100               ***   
       LINEQ_TYPE           ILTYPE         DIIS        [  1]    ***   
       LOCK_ORBOCC          ILOCOC         OFF         [  0]    ***   
       MEMORY_SIZE          IMEMSZ         *********           words  
       MEM_UNIT             IMEMU          GB          [  3]    ***   
       MRCC                 IMRCCC         OFF         [  0]    ***   
       MULTIPLICTY          IMULTP              1               ***   
       NACOUPLING           IVCOUP         OFF         [  0]    ***   
       NEGEVAL              IDIE           ABORT       [  0]    ***   
       NEWNORM              INEWNO         OFF         [  0]    ***   
       NON-HF               INONHF         OFF         [  0]    ***   
       NTOP_TAMP            ITOPT2             15               ***   
       NUC_MODEL            INUCMO         POINT       [  0]    ***   
       OCCUPATION           IOCCU   ESTIMATED BY SCF 
       OPEN-SHELL           IOPEN          SPIN-ORBITAL[  0]    ***   
       OPTVIB               IOPTVB         OFF         [  0]    ***   
       ORBITALS             IORBTP         STANDARD    [  0]    ***   
       PARALLEL             IPARAL         ON          [  1]    ***   
       PARA_INT             IPINTS         ON          [  1]    ***   
       PARA_PRINT           IPPRIN              0               ***   
       PERT_ORB             IPTORB         STANDARD    [  0]    ***   
       POINTS               IGRDFD              0               ***   
       PRINT                IPRNT               0               ***   
       PROPS                IPROPS         OFF         [  0]    ***   
       PROP_INTEGR          IINTYP         INTERNAL    [  0]    ***   
       PSI                  IPSI           OFF         [  0]    ***   
       QC_ALG               IQCALG         FLM         [  0]    ***   
       QC_LINALG            IQCLIN         TRIDIAG     [  2]    ***   
       QC_MAXCYC            IQCMAX          10D-100           cycles  
       QC_MAXSCFCY          IQCMSC          10D- 15           cycles  
       QC_RTRUST            IQCRTR          10D-  0           x 10-3  
       QC_SKIPSCF           IQCSKI         OFF         [  0]    ***   
       QC_START             IQCSTA          10D-  1             ***   
       QRHFGUESS            IQGUES         OFF         [  0]    ***   
       QUARTIC              IQUART         OFF         [  0]    ***   
       RAMAN_INT            IRAMIN         OFF         [  0]    ***   
       RAMAN_ORB            IRAMRE         UNRELAXED   [  0]    ***   
       RDO                  IRDOFM         OFF         [  0]    ***   
       REDUCE_REPR          REDREP         Ir          [  0]    ***   
       REFERENCE            IREFNC         RHF         [  0]    ***   
       RELATIVIST           IRELAT         OFF         [  0]    ***   
       RELAX_DENS           IRDENS         OFF         [  0]    ***   
       RESET_FLAGS          IRESET         OFF         [  0]    ***   
       RESTART_CC           ICCRES         OFF         [  0]    ***   
       ROT_EVEC             ROTVEC              0               ***   
       SAVE_INTS            ISVINT         OFF         [  0]    ***   
       SCALE_ON             ISTCRT              0               ***   
       SCF_CONV             ISCFCV          10D-  8             ***   
       SCF_DAMPING          IDAMP               0             x 10-3  
       SCF_EXPORDE          IRPPOR              6               ***   
       SCF_EXPSTAR          IRPPLS              8               ***   
       SCF_EXTRAPO          IRPP           ON          [  1]    ***   
       SCF_MAXCYC           ISCFCY            150              cycles 
       SCF_NOSTOP           ISCFST         OFF         [  0]    ***   
       SCF_PRINT            ISCFPR              0               ***   
       SCF_PROG             ISCFPR         SCF         [  0]    ***   
       SD_FIELD             IFINSD              0             x 10-6  
       SOPERT               IPERSO         OFF         [  0]    ***   
       SPHERICAL            IDFGHI         ON          [  1]    ***   
       SPINORBIT            ISOCAL         OFF         [  0]    ***   
       SPINROTATIO          ISRCON         OFF         [  0]    ***   
       SPIN_FLIP            ISPFLP         OFF         [  0]    ***   
       SPIN_ORBIT           ISPORB         OFF         [  0]    ***   
       SPIN_SCAL            ISCSMP         OFF         [  0]    ***   
       STEEPSCALE           ISTPSC              1000          x 10-3  
       SUBGROUP             ISUBGP         DEFAULT     [  0]    ***   
       SUBGRPAXIS           ISBXYZ         X           [  0]    ***   
       SYMMETRY             ISYM           ON          [  0]    ***   
       SYM_CHECK            ISYMCK         OVERRIDE    [  1]    ***   
       T3_EXTRAPOL          IT3EXT         OFF         [  0]    ***   
       T4_EXTRAPOL          IT4EXP         OFF         [  0]    ***   
       TAMP_SUM             IEVERY              5               ***   
       TESTSUITE            ITESTS         OFF         [  0]    ***   
       THERMOCH             ITHERM         OFF         [  0]    ***   
       TOL_CHOLESK          ITOLCH          10D-  4             ***   
       TRANGRAD             IRESRM         OFF         [  0]    ***   
       TRANS_INV            ITRAIN         USE         [  0]    ***   
       TREAT_PERT           ITREAT         SIMULTANEOUS[  0]    ***   
       TRIP_ALGORI          ITRALG         NORMAL      [  0]    ***   
       UIJ_THRESHO          IUIJTH              1               ***   
       UNITS                IUNITS         BOHR        [  1]    ***   
       UNOS                 IUNOS          OFF         [  0]    ***   
       UPDATE_HESS          IHUPDT         ON          [  1]    ***   
       VIBPHASE             ISETPH         STANDARD    [  0]    ***   
       VIBRATION            IVIB           NO          [  0]    ***   
       VIB_ALGORIT          IGEALG         STANDARD    [  0]    ***   
       VNATORB              IVNORB         OFF         [  0]    ***   
       VTRAN                IVTRAN         FULL/PARTIAL[  0]    ***   
       XFIELD               IXEFLD              0             x 10-6  
       XFORM_TOL            IXFTOL          10D- 11             ***   
       YFIELD               IYEFLD              0             x 10-6  
       ZFIELD               IZEFLD              0             x 10-6  
       ZSCALE_EXP           IZEXPS         OFF         [  0]    ***   
    -------------------------------------------------------------------
  @GETXYZ-I,     2 atoms read from ZMAT.
   Rotational constants (in cm-1): 
          1.5028196650             1.5028196650
   Rotational constants (in MHz): 
      45053.4064417322         45053.4064417322
********************************************************************************
   The full molecular point group is CXv .
   The largest Abelian subgroup of the full molecular point group is C2v .
   The computational point group is C2v .
********************************************************************************


 ----------------------------------------------------------------
         Coordinates used in calculation (QCOMP) 
 ----------------------------------------------------------------
 Z-matrix   Atomic            Coordinates (in bohr)
  Symbol    Number           X              Y              Z
 ----------------------------------------------------------------
     B         5        -0.00000000     0.00000000     1.51777004
     F         9         0.00000000     0.00000000    -0.87952622
 ----------------------------------------------------------------
 
   Interatomic distance matrix (Angstroms) 
 
                 B             F    
                [ 1]        [ 2]
  B    [ 1]     0.00000
  F    [ 2]     1.26859     0.00000
 rotcon2
   Rotational constants (in cm-1): 
          1.5028196650             0.0000000000
   Rotational constants (in MHz): 
      45053.4064417322             0.0000000000
  There are   2 frozen-core orbitals.
  There are   46 basis functions.
 @GEOPT-W, Archive file not created for single-point calculation.
 @CHECKOUT-I, Total execution time (CPU/WALL):        0.15/       1.34 seconds.
--executable xjoda finished with status     0 in        1.85 seconds (walltime).
 --invoking executable--
/home/CEISAM/blondel-a/soft/cfour2.1/cfour2.1-serial-mkl/bin/xvmol
 SERIAL VERSION OF MOLECULE STARTED
********************************************************************************
                    INPUT FROM MOL FILE
********************************************************************************
INTGRL        1    0    1    0    0    0    0    0    0                         
         *** CFOUR Program System (Release V0.1) ***                            
Ketene -GS                                                                      
    2    2 X  Y       0.10E-08              0    0                              
   9999.00      3.00                                                            
          5.00000000    1    3    1    1    1                                   
B #1  -0.000000000000000   0.000000000000000   1.517770036077388                
   10    4                                                                      
   4570.00000000000       6.960000000000000E-004 -1.390000000000000E-004        
  0.000000000000000E+000  0.000000000000000E+000                                
   685.900000000000       5.353000000000000E-003 -1.097000000000000E-003        
  0.000000000000000E+000  0.000000000000000E+000                                
   156.500000000000       2.713400000000000E-002 -5.444000000000000E-003        
  0.000000000000000E+000  0.000000000000000E+000                                
   44.4700000000000       0.101380000000000      -2.191600000000000E-002        
  0.000000000000000E+000  0.000000000000000E+000                                
   14.4800000000000       0.272055000000000      -5.975100000000000E-002        
  0.000000000000000E+000  0.000000000000000E+000                                
   5.13100000000000       0.448403000000000      -0.138732000000000             
  0.000000000000000E+000  0.000000000000000E+000                                
   1.89800000000000       0.290123000000000      -0.131482000000000             
  0.000000000000000E+000  0.000000000000000E+000                                
  0.332900000000000       1.432200000000000E-002  0.539526000000000             
  0.000000000000000E+000  0.000000000000000E+000                                
  0.104300000000000      -3.486000000000000E-003  0.580774000000000             
   1.00000000000000       0.000000000000000E+000                                
  3.105000000000000E-002  0.000000000000000E+000  0.000000000000000E+000        
  0.000000000000000E+000   1.00000000000000                                     
    5    3                                                                      
   6.00100000000000       3.548100000000000E-002  0.000000000000000E+000        
  0.000000000000000E+000                                                        
   1.24100000000000       0.198072000000000       0.000000000000000E+000        
  0.000000000000000E+000                                                        
  0.336400000000000       0.505230000000000       0.000000000000000E+000        
  0.000000000000000E+000                                                        
  9.538000000000001E-002  0.479499000000000        1.00000000000000             
  0.000000000000000E+000                                                        
  2.378000000000000E-002  0.000000000000000E+000  0.000000000000000E+000        
   1.00000000000000                                                             
    2    2                                                                      
  0.343000000000000        1.00000000000000       0.000000000000000E+000        
  9.039999999999999E-002  0.000000000000000E+000   1.00000000000000             
          9.00000000    1    3    1    1    1                                   
F #2   0.000000000000000   0.000000000000000  -0.879526224422612                
   10    4                                                                      
   14710.0000000000       7.210000000000000E-004 -1.650000000000000E-004        
  0.000000000000000E+000  0.000000000000000E+000                                
   2207.00000000000       5.553000000000000E-003 -1.308000000000000E-003        
  0.000000000000000E+000  0.000000000000000E+000                                
   502.800000000000       2.826700000000000E-002 -6.495000000000000E-003        
  0.000000000000000E+000  0.000000000000000E+000                                
   142.600000000000       0.106444000000000      -2.669100000000000E-002        
  0.000000000000000E+000  0.000000000000000E+000                                
   46.4700000000000       0.286814000000000      -7.369000000000001E-002        
  0.000000000000000E+000  0.000000000000000E+000                                
   16.7000000000000       0.448641000000000      -0.170776000000000             
  0.000000000000000E+000  0.000000000000000E+000                                
   6.35600000000000       0.264761000000000      -0.112327000000000             
  0.000000000000000E+000  0.000000000000000E+000                                
   1.31600000000000       1.533300000000000E-002  0.562814000000000             
  0.000000000000000E+000  0.000000000000000E+000                                
  0.389700000000000      -2.332000000000000E-003  0.568778000000000             
   1.00000000000000       0.000000000000000E+000                                
  9.863000000000000E-002  0.000000000000000E+000  0.000000000000000E+000        
  0.000000000000000E+000   1.00000000000000                                     
    5    3                                                                      
   22.6700000000000       4.487800000000000E-002  0.000000000000000E+000        
  0.000000000000000E+000                                                        
   4.97700000000000       0.235718000000000       0.000000000000000E+000        
  0.000000000000000E+000                                                        
   1.34700000000000       0.508521000000000       0.000000000000000E+000        
  0.000000000000000E+000                                                        
  0.347100000000000       0.458120000000000        1.00000000000000             
  0.000000000000000E+000                                                        
  8.502000000000000E-002  0.000000000000000E+000  0.000000000000000E+000        
   1.00000000000000                                                             
    2    2                                                                      
   1.64000000000000        1.00000000000000       0.000000000000000E+000        
  0.464000000000000       0.000000000000000E+000   1.00000000000000             
FINISH                                                                          
 
********************************************************************************
 ONE- AND TWO-ELECTRON INTEGRALS OVER SYMMETRY-ADAPTED AOS ARE CALCULATED.

  SPHERICAL HARMONICS ARE USED.
  
  INTEGRALS LESS THAN  0.10E-13 ARE NEGLECTED.

  NUCLEAR REPULSION ENERGY :   18.7711467879 A.U.
  @MOLECU-I, ONE ELECTRON INTEGRALS (CPU/WALL):        0.02/       0.03 SECONDS.
  @TWOEL-I,      20634 INTEGRALS OF SYMMETRY TYPE  I I I I
  @TWOEL-I,      54522 INTEGRALS OF SYMMETRY TYPE  I J I J
  @TWOEL-I,      31497 INTEGRALS OF SYMMETRY TYPE  I I J J
  @TWOEL-I,      23276 INTEGRALS OF SYMMETRY TYPE  I J K L
  @TWOEL-I, TOTAL NUMBER OF 2-E INTEGRALS     129929.
  @MOLECU-I, TWO ELECTRON INTEGRALS (CPU/WALL):        1.75/       0.10 SECONDS.
 @CHECKOUT-I, Total execution time (CPU/WALL):        1.79/       0.14 seconds.

Running with 20 threads/proc

--executable xvmol finished with status     0 in        0.64 seconds (walltime).
 --invoking executable--
/home/CEISAM/blondel-a/soft/cfour2.1/cfour2.1-serial-mkl/bin/xvmol2ja
 @GETMEM-I,  Allocated   95367 MB of main memory.
 @CHECKOUT-I, Total execution time (CPU/WALL):        0.19/       0.04 seconds.
--executable xvmol2ja finished with status     0 in        0.52 seconds (walltime).
 --invoking executable--
/home/CEISAM/blondel-a/soft/cfour2.1/cfour2.1-serial-mkl/bin/xvscf
  There are   46 functions in the AO basis.

  There are 4 irreducible representations.

       Irrep        # of functions
         1                 22
         2                 10
         3                 10
         4                  4


  Parameters for SCF calculation: 
        SCF reference function:  RHF  
  Maximum number of iterations:  150
     Full symmetry point group: CXv 
     Computational point group: C2v 
        Initial density matrix: MOREAD                 
     SCF convergence tolerance: 10**(- 8)
  DIIS convergence acceleration:  ON
          Latest start for DIIS:   8
                     DIIS order:   6

  Memory information:     124718 words required.
  Fock matrices are constructed from AO integral file.
 @GETMEM-I,  Allocated       0 MB of main memory.
  Initialization and symmetry analysis required      0.002 seconds.

  @INITGES-I, Occupancies from core Hamiltonian:

          Alpha population by irrep:   5    1    1    0
           Beta population by irrep:   5    1    1    0


 total no. of electrons in initial guess :  0.000000000000000E+000
  --------------------------------------------------------------------
  Iteration         Total Energy            Largest Density Difference
  --------------------------------------------------------------------
       0            18.771146787929510              0.0000000000D+00
   current occupation vector 
     5  1  1  0
     5  1  1  0
       1          -114.717582305918015              0.1069335684D+02
   current occupation vector 
     5  1  1  0
     5  1  1  0
       2          -106.231676720448689              0.1043804716D+02
   current occupation vector 
     5  1  1  0
     5  1  1  0
       3          -117.429348881201221              0.1062471041D+02
   current occupation vector 
     5  1  1  0
     5  1  1  0
       4          -107.868301510188161              0.9545880611D+01
   current occupation vector 
     5  1  1  0
     5  1  1  0
       5          -117.471605136672721              0.1092418915D+02
   current occupation vector 
     5  1  1  0
     5  1  1  0
       6          -108.282292227918674              0.1093901422D+02
   current occupation vector 
     5  1  1  0
     5  1  1  0
       7          -116.780441283007363              0.1157386728D+02
   current occupation vector 
     5  1  1  0
     5  1  1  0
       8          -108.559062300586376              0.1154305583D+02
   current occupation vector 
     5  1  1  0
     5  1  1  0
       9          -123.212725272473918              0.2639522095D+01
   current occupation vector 
     5  1  1  0
     5  1  1  0
      10          -123.809281693176686              0.6384497342D+00
   current occupation vector 
     5  1  1  0
     5  1  1  0
      11          -124.098439763082510              0.4205532108D+00
   current occupation vector 
     5  1  1  0
     5  1  1  0
      12          -124.114903558798304              0.1249390889D+00
   current occupation vector 
     5  1  1  0
     5  1  1  0
      13          -124.114991557171393              0.1267519916D-01
   current occupation vector 
     5  1  1  0
     5  1  1  0
      14          -124.114994191777399              0.2184550272D-02
   current occupation vector 
     5  1  1  0
     5  1  1  0
      15          -124.114994275257189              0.5803652128D-03
   current occupation vector 
     5  1  1  0
     5  1  1  0
      16          -124.114994276697459              0.8224954942D-04
   current occupation vector 
     5  1  1  0
     5  1  1  0
      17          -124.114994276746117              0.1109356409D-04
   current occupation vector 
     5  1  1  0
     5  1  1  0
      18          -124.114994276747424              0.1978597536D-05
   current occupation vector 
     5  1  1  0
     5  1  1  0
      19          -124.114994276747737              0.5522031679D-06
   current occupation vector 
     5  1  1  0
     5  1  1  0
      20          -124.114994276747709              0.4148570076D-07
   current occupation vector 
     5  1  1  0
     5  1  1  0
      21          -124.114994276747623              0.1862391699D-07
   current occupation vector 
     5  1  1  0
     5  1  1  0

  SCF has converged.

 Density matrix saved to file den.dat
 total electron number:   14.0000000000000     
     E(SCF)=      -124.114994276747566              0.3699906055D-08

  Eigenvector printing suppressed.

 @PUTMOS-I, Writing converged MOs to NEWMOS. 
 @PUTMOS-I, Symmetry   1 Full Blocks  5 Partial Blocksize   2
 @PUTMOS-I, Symmetry   2 Full Blocks  2 Partial Blocksize   2
 @PUTMOS-I, Symmetry   3 Full Blocks  2 Partial Blocksize   2
 @PUTMOS-I, Symmetry   4 Full Blocks  1 Partial Blocksize   0
 @PUTFOCK-I, Writing converged Fock matrix to NEWFOCK. 
 @PUTFOCK-I, Symmetry   1 Full Blocks  5 Partial Blocksize   2
 @PUTFOCK-I, Symmetry   2 Full Blocks  2 Partial Blocksize   2
 @PUTFOCK-I, Symmetry   3 Full Blocks  2 Partial Blocksize   2
 @PUTFOCK-I, Symmetry   4 Full Blocks  1 Partial Blocksize   0


 
  ORBITAL EIGENVALUES (ALPHA)  (1H = 27.2113834 eV)

       MO #        E(hartree)               E(eV)           FULLSYM    COMPSYM
       ----   --------------------   --------------------   -------   ---------
    1     1         -26.3891495513        -718.0852660399     SG+        A1 (1)
    2     2          -7.7263109261        -210.2436088783     SG+        A1 (1)
    3     3          -1.7066483053         -46.4402613644     SG+        A1 (1)
    4     4          -0.8581587106         -23.3516856924     SG+        A1 (1)
    5    33          -0.7462896409         -20.3075735455      PI        B2 (3)
    6    23          -0.7462896409         -20.3075735455      PI        B1 (2)
    7     5          -0.4062927488         -11.0557877597     SG+        A1 (1)
  +++++++++++++++++++++++++++++++++++++++++++++++++++++++++++++++++++++++++++++
    8    34           0.0442184811           1.2032460435      PI        B2 (3)
    9    24           0.0442184811           1.2032460435      PI        B1 (2)
   10     6           0.0554274350           1.5082571847     SG+        A1 (1)
   11     7           0.0737171468           2.0059455437     SG+        A1 (1)
   12    35           0.1297866659           3.5316747269      PI        B2 (3)
   13    25           0.1297866659           3.5316747269      PI        B1 (2)
   14     8           0.2308341816           6.2813174160     SG+        A1 (1)
   15     9           0.2607035681           7.0941047461     SG+        A1 (1)
   16    36           0.2721170082           7.4046802392      PI        B2 (3)
   17    26           0.2721170082           7.4046802392      PI        B1 (2)
   18    10           0.2733914469           7.4393594790      DE        A1 (1)
   19    43           0.2733914469           7.4393594790      DE        A2 (4)
   20    37           0.3704416170          10.0802288686      PI        B2 (3)
   21    27           0.3704416170          10.0802288686      PI        B1 (2)
   22    11           0.4099183829          11.1544462799     SG+        A1 (1)
   23    12           0.4627833407          12.5929749153     SG+        A1 (1)
   24    28           0.5663155584          15.4102297857      PI        B1 (2)
   25    38           0.5663155584          15.4102297857      PI        B2 (3)
   26    13           0.7140570182          19.4304792927     SG+        A1 (1)
   27    14           0.9967832551          27.1238513206     SG+        A1 (1)
   28    15           1.0160798073          27.6489372018      DE        A1 (1)
   29    44           1.0160798073          27.6489372018      DE        A2 (4)
   30    39           1.1394304117          31.0054777915      PI        B2 (3)
   31    29           1.1394304117          31.0054777915      PI        B1 (2)
   32    16           1.3884668629          37.7821041443      DE        A1 (1)
   33    45           1.3884668629          37.7821041443      DE        A2 (4)
   34    17           1.4320005632          38.9667163532     SG+        A1 (1)
   35    40           1.5615985488          42.4932568275      PI        B2 (3)
   36    30           1.5615985488          42.4932568275      PI        B1 (2)
   37    18           1.7380708586          47.2953125108     SG+        A1 (1)
   38    41           1.9257115713          52.4012758852      PI        B2 (3)
   39    31           1.9257115713          52.4012758852      PI        B1 (2)
   40    19           2.1346891668          58.0878453579     SG+        A1 (1)
   41    20           3.5964332072          97.8639228743     SG+        A1 (1)
   42    21           4.8039327089         130.7216547705      DE        A1 (1)
   43    46           4.8039327089         130.7216547705      DE        A2 (4)
   44    42           4.9216575194         133.9251097234      PI        B2 (3)
   45    32           4.9216575194         133.9251097234      PI        B1 (2)
   46    22           4.9673382341         135.1681451657     SG+        A1 (1)


  VSCF finished.

 @CHECKOUT-I, Total execution time (CPU/WALL):        3.95/       0.32 seconds.
--executable xvscf finished with status     0 in        0.81 seconds (walltime).
 --invoking executable--
/home/CEISAM/blondel-a/soft/cfour2.1/cfour2.1-serial-mkl/bin/xvtran
 @GETMEM-I,  Allocated   95367 MB of main memory.
  Full RHF integral transformation
  The following   2 MOs will be dropped:
    1  2
  There are  44 active molecular orbitals.
  Transformation of IIII integrals :
  1 pass through the AO integral file was required.
       20634 AO integrals were read.
       22137 MO integrals were written to HF2.
  Transformation of IIJJ integrals :
  1 pass through the AO integral file was required.
       31497 AO integrals were read.
       29156 MO integrals were written to HF2.
  Transformation of IJIJ integrals :
  1 pass through the AO integral file was required.
       54522 AO integrals were read.
       49498 MO integrals were written to HF2.
  Transformation of IJKL integrals :
  1 pass through the AO integral file was required.
       23276 AO integrals were read.
       22797 MO integrals were written to HF2.
  Summary of active molecular orbitals: 
------------------------------------------------------------------------
 
  Index      Eigenvalue    Symmetry    Index      Eigenvalue    Symmetry
------------------------------------------------------------------------
     1        -1.7066483        1        23         0.0442185        2
     2        -0.8581587        1        24         0.1297867        2
     3        -0.4062927        1        25         0.2721170        2
     4        -0.7462896        2        26         0.3704416        2
     5        -0.7462896        3        27         0.5663156        2
     6         0.0554274        1        28         1.1394304        2
     7         0.0737171        1        29         1.5615985        2
     8         0.2308342        1        30         1.9257116        2
     9         0.2607036        1        31         4.9216575        2
    10         0.2733914        1        32         0.0442185        3
    11         0.4099184        1        33         0.1297867        3
    12         0.4627833        1        34         0.2721170        3
    13         0.7140570        1        35         0.3704416        3
    14         0.9967833        1        36         0.5663156        3
    15         1.0160798        1        37         1.1394304        3
    16         1.3884669        1        38         1.5615985        3
    17         1.4320006        1        39         1.9257116        3
    18         1.7380709        1        40         4.9216575        3
    19         2.1346892        1        41         0.2733914        4
    20         3.5964332        1        42         1.0160798        4
    21         4.8039327        1        43         1.3884669        4
    22         4.9673382        1        44         4.8039327        4
------------------------------------------------------------------------
  -1.70664830529537      -0.858158710606381      -0.406292748779756     
 -0.746289640883641      -0.746289640883647       5.542743500154786E-002
  7.371714676322083E-002  0.230834181551149       0.260703568127401     
  0.273391446869040       0.409918382905082       0.462783340713150     
  0.714057018236240       0.996783255075612        1.01607980731228     
   1.38846686289007        1.43200056316196        1.73807085864001     
   2.13468916681172        3.59643320722590        4.80393270892897     
   4.96733823410343       4.421848113485273E-002  0.129786665931544     
  0.272117008177882       0.370441617039091       0.566315558424113     
   1.13943041174011        1.56159854877001        1.92571157132836     
   4.92165751938207       4.421848113485195E-002  0.129786665931541     
  0.272117008177877       0.370441617039079       0.566315558424115     
   1.13943041174011        1.56159854876999        1.92571157132834     
   4.92165751938205       0.273391446869043        1.01607980731229     
   1.38846686289009        4.80393270892899     
 @CHECKOUT-I, Total execution time (CPU/WALL):        0.71/       0.07 seconds.
--executable xvtran finished with status     0 in        0.55 seconds (walltime).
 --invoking executable--
/home/CEISAM/blondel-a/soft/cfour2.1/cfour2.1-serial-mkl/bin/xintprc
 @GETMEM-I,  Allocated   95367 MB of main memory.
  Processing integrals for CCSD calculation.
  @GMOIAA-I, Processing MO integrals for spin case AA.
  @GMOIAA-I, Generation of integral list completed.
                      TYPE                NUMBER
                      ----               --------
                      PPPP                 75891
                      PPPH                 38470
                      PPHH                  5079
                      PHPH                  3245
                      PHHH                   854
                      HHHH                    49

                     TOTAL                123588

  @FORMT2-I, Second-order MP correlation energies:
            ------------------------------------------------
            E(SCF)                  =   -124.114994276748 a.u.
            E2(AA)                  =     -0.033886932019 a.u.
            E2(AB)                  =     -0.197305181984 a.u.
            E2(TOT)                 =     -0.265079046023 a.u.
            Total MP2 energy        =   -124.380073322771 a.u.
            ------------------------------------------------
   Largest T2 amplitudes for spin case AB:
       _       _                 _       _                 _       _
   i   j   a   b             i   j   a   b             i   j   a   b
-----------------------------------------------------------------------------
[  3   3  24  24]-0.05158 [  3   3  33  33]-0.05158 [  3   3  13  13]-0.02833
[  3   3  33  32]-0.02728 [  3   3  32  33]-0.02728 [  3   3  24  23]-0.02728
[  3   3  23  24]-0.02728 [  5   5  38  38]-0.02246 [  4   4  29  29]-0.02246
[  3   3  11  11]-0.01879 [  2   2  13  13]-0.01871 [  2   2  18  18]-0.01789
[  5   4  38  29]-0.01729 [  4   5  29  38]-0.01729 [  4   4  24  24]-0.01728
-----------------------------------------------------------------------------
   Norm of T2AB vector (    10269 symmetry allowed elements):  0.2391221866.
-----------------------------------------------------------------------------
 @CHECKOUT-I, Total execution time (CPU/WALL):        0.27/       0.09 seconds.
--executable xintprc finished with status     0 in        0.57 seconds (walltime).
  calling xncc 
 --invoking executable--
/home/CEISAM/blondel-a/soft/cfour2.1/cfour2.1-serial-mkl/bin/xncc
 @GETMEM-I,  Allocated       7 MB of main memory.

Running with 20 threads/proc

Following the lowest-energy eigenvector.
Using discrete restarting.
Using an orthogonal subspace.
Orthogonalizing against previous roots.
Using Modified Gram-Schmidt orthogonalization.

Using DIIS to accelerate the convergence of T1 and T2
Using immediate high-order contributions
Damping factor for T3: 0.000000
Damping factor for T4: 0.000000

Transposes are coarse-threaded

Memory limit:                 93.132 GiB
Minimum memory requirement:    2.955 MiB
Compromise memory amount:      8.590 MiB
Optimal memory requirement:   14.294 MiB

List              Location   Size        Cached Hunks Est. Disk I/O
----------------- ---------- ----------- ------ ----- -------------

           HR_DAV      470:1    2.445 MiB    Yes     -   131.177 MiB
                R        471   74.625 KiB    Yes     -     6.559 MiB
            R_DAV      470:0    2.445 MiB    Yes     -   254.337 MiB
           T_DIIS       70:0  403.828 KiB    Yes     -     7.099 MiB
           Z_DIIS       70:1  403.828 KiB    Yes     -    11.831 MiB
          <AI|bj>         18   80.227 KiB    Yes     -     3.130 MiB
          <Ab|Cd>        233    4.522 MiB    Yes     -   140.171 MiB
          <Ab|Ci>         30  605.086 KiB    Yes     -   109.317 MiB
          <Ab|Ij>         16   80.227 KiB    Yes     -    20.683 MiB
          <Ai|Bj>         25   80.227 KiB    Yes     -     2.585 MiB
          <Aj|bI>         21   80.227 KiB     No     -         0   B
          <Ij|Ka>         10   10.898 KiB    Yes     -     2.522 MiB
          <Ij|Kl>         13    1.539 KiB    Yes     -    24.625 KiB
           DD(AI)      448:8      552   B    Yes     -     6.000 KiB
        DD(Ab,Ij)        450   80.227 KiB    Yes     -     1.160 MiB
            F(EA)       92:0    3.648 KiB    Yes     -   616.586 KiB
            F(EM)       93:0      552   B    Yes     -    43.125 KiB
            F(MI)       91:0       88   B    Yes     -    15.812 KiB
           HR(AI)      490:2      552   B    Yes     -   382.500 KiB
        HR(Ab,Ij)        463   80.227 KiB    Yes     -    80.486 MiB
            R(AI)      490:0      552   B    Yes     -     1.104 MiB
         R(Ab,Ij)        446   80.227 KiB    Yes     -   224.055 MiB
            T(AI)       90:0      552   B    Yes     -   201.609 KiB
         T(Ab,Ij)         46   80.227 KiB    Yes     -    20.918 MiB
         W(Mn,Ij)         53    1.539 KiB    Yes     -    72.336 KiB
        W~(Ab,Ej)        130  605.086 KiB    Yes     -    11.227 MiB
        W~(EM,bj)         56   80.227 KiB    Yes     -     8.020 MiB
        W~(Em,Bj)         58   80.227 KiB    Yes     -     7.756 MiB
        W~(Ij,Mb)        110   10.898 KiB    Yes     -   697.500 KiB
       W~~(EM,bj)         76   80.227 KiB    Yes     -   641.812 KiB
       W~~(Em,Bj)         78   80.227 KiB    Yes     -   641.812 KiB
         X(Ab,Ej)        430  605.086 KiB     No     -         0   B
         X(Ab,Ij)        416   80.227 KiB     No     -         0   B
            X(EA)      492:0    3.648 KiB    Yes     -   265.781 KiB
            X(EM)      493:0      552   B    Yes     -    11.250 KiB
         X(EM,bj)        418   80.227 KiB     No     -         0   B
         X(Ef,Am)        469  605.086 KiB     No     -         0   B
         X(Em,Bj)        425   80.227 KiB     No     -         0   B
         X(Ij,Mb)        410   10.898 KiB    Yes     -   428.203 KiB
            X(MI)      491:0       88   B    Yes     -     4.219 KiB
         X(Mn,Ie)        465   10.898 KiB     No     -         0   B
         X(Mn,Ij)        413    1.539 KiB    Yes     -    36.562 KiB
            Z(AI)       90:2      552   B    Yes     -    80.859 KiB
         Z(Ab,Ij)         63   80.227 KiB    Yes     -    11.752 MiB

Simulation and memory analysis took 0.031 seconds

MP2 correlation energy:  -0.265079046022957

Non-iterative calculation of MP2 took 0.048 cpu seconds and 0.003 walltime seconds at 0.193 Gflops/sec

Total MP2 energy: -124.380073322770528

Beginning iterative solution of CCSD equations:

It.  Correlation Energy T1 Residual T2 Residual CPU Time (s) Walltime (s)
-------------------------------------------------------------------------
  1  -0.268049924440839 2.16118e-02 2.12671e-02        0.464        0.024
  2  -0.277653891403376 3.80682e-03 1.08382e-02        0.235        0.012
  3  -0.278338623373131 4.54267e-03 5.60520e-03        0.224        0.011
  4  -0.280513679243419 6.52503e-04 9.86546e-04        0.223        0.011
  5  -0.280620954639051 1.81190e-04 2.49442e-04        0.218        0.011

   A    I                     A    I                     A    I                  
-------------------------- -------------------------- -------------------------- 
  12    5  0.0255212256950   20    5  0.0092885398554   22    4  0.0079133060721 
  13    6  0.0255212256950   21    6  0.0092885398554   25    5  0.0072975822500 
   8    5  0.0162900186294   16    5 -0.0083807925661   24    6  0.0072975822500 
   9    6  0.0162900186294   17    6 -0.0083807925661   26    7  0.0070863887498 
  15    7  0.0142946529052   26    4  0.0081613143445   22    7  0.0066762450772 

   A    B    I    J                     A    B    I    J                  
------------------------------------ ------------------------------------ 
  13   13    7    7 -0.0959940434400   12   25    7    7 -0.0333738599072 
  12   12    7    7 -0.0959940434400   24   13    7    7 -0.0333738599072 
  12    8    7    7 -0.0507481893259   13   24    7    7 -0.0333738599072 
   8   12    7    7 -0.0507481893259    8    8    7    7 -0.0271649129577 
  13    9    7    7 -0.0507481893259    9    9    7    7 -0.0271649129577 
   9   13    7    7 -0.0507481893259   31   13    7    7  0.0265151416140 
  26   26    7    7 -0.0353608843236   13   31    7    7  0.0265151416140 
  25   12    7    7 -0.0333738599072 

It.  Correlation Energy T1 Residual T2 Residual CPU Time (s) Walltime (s)
-------------------------------------------------------------------------
  6  -0.280623126325691 6.57380e-05 3.68888e-05        0.231        0.012
  7  -0.280622613643906 2.54923e-05 7.99550e-06        0.219        0.011
  8  -0.280620204551347 5.97625e-06 3.41962e-06        0.213        0.011
  9  -0.280620679444701 3.01328e-06 2.18400e-06        0.221        0.011
 10  -0.280620876231717 5.35861e-07 1.33727e-06        0.207        0.010

   A    I                     A    I                     A    I                  
-------------------------- -------------------------- -------------------------- 
  12    5  0.0254324833955   20    5  0.0092771185364   22    4  0.0079012744222 
  13    6  0.0254324833955   21    6  0.0092771185364   25    5  0.0072744840699 
   8    5  0.0162173555874   16    5 -0.0084014317036   24    6  0.0072744840699 
   9    6  0.0162173555874   17    6 -0.0084014317036   26    7  0.0071114032016 
  15    7  0.0143610057441   26    4  0.0081448666114   22    7  0.0067331173303 

   A    B    I    J                     A    B    I    J                  
------------------------------------ ------------------------------------ 
  13   13    7    7 -0.0960844076319   12   25    7    7 -0.0333981397194 
  12   12    7    7 -0.0960844076319   24   13    7    7 -0.0333981397194 
  12    8    7    7 -0.0508183851973   13   24    7    7 -0.0333981397194 
   8   12    7    7 -0.0508183851973    8    8    7    7 -0.0272105250392 
  13    9    7    7 -0.0508183851973    9    9    7    7 -0.0272105250392 
   9   13    7    7 -0.0508183851973   31   13    7    7  0.0265257885800 
  26   26    7    7 -0.0353500155808   13   31    7    7  0.0265257885800 
  25   12    7    7 -0.0333981397194 

It.  Correlation Energy T1 Residual T2 Residual CPU Time (s) Walltime (s)
-------------------------------------------------------------------------
 11  -0.280621135095779 2.47947e-07 5.88400e-07        0.215        0.011
 12  -0.280621194427874 7.95889e-08 2.26624e-07        0.215        0.011
 13  -0.280621223547292 4.38916e-08 6.88046e-08        0.220        0.011

CCSD iterations converged in 13 cycles and 0.157 seconds (0.012 s/it.) at 2.566 Gflops/sec

Total CCSD energy: -124.395615500294852

             _
Formation of H took 0.028 seconds at 1.725 Gflops/sec

Searching for 1 roots in irrep 2

EOMEE-CCSD guess vector:

   A    I                  
-------------------------- 
   9    7  1.0000000000000 

Beginning iterative solution of EOMEE-CCSD equations:

It.  Correlation Energy R1 Residual R2 Residual CPU Time (s) Walltime (s)
-------------------------------------------------------------------------
  1   0.339699504351522 2.90070e-02 5.22502e-02        0.436        0.022
  2   0.310514099141050 1.20438e-01 3.77647e-02        0.232        0.012
  3   0.268342937765510 4.73688e-02 2.03421e-02        0.228        0.011
  4   0.246931511665931 2.18738e-02 1.50020e-02        0.252        0.013
  5   0.241211402704207 5.00066e-03 3.66213e-03        0.273        0.014
  6   0.240256288041719 2.40580e-03 1.52656e-03        0.296        0.015
  7   0.240140157487686 6.62649e-04 1.15245e-03        0.318        0.016
Locking on root: 0.240136490722467
  8   0.240136490722467 2.75331e-04 2.19201e-04        0.341        0.017
  9   0.240133058064632 1.20203e-04 9.77584e-05        0.363        0.018
 10   0.240134216067496 4.99577e-05 3.29115e-05        0.384        0.019
 11   0.240134156219269 1.52021e-05 8.20923e-06        0.412        0.021
 12   0.240134000928662 4.92644e-06 3.27744e-06        0.432        0.022

EOMEE-CCSD iterations converged in 12 cycles and 0.199 seconds (0.017 s/it.) at 2.651 Gflops/sec

EOMEE-CCSD excitation energy:   0.240134000928663 (  6.534378366645798 eV)
Total EOMEE-CCSD energy:      -124.155481499366189

Converged root:

   A    I                     A    I                     A    I                  
-------------------------- -------------------------- -------------------------- 
   9    7  0.4880139422921    9    4 -0.0295124171099   31    4 -0.0154337572748 
  13    7  0.4669594960585   31    7  0.0241277754742   28    6  0.0144110942304 
  21    7  0.0633727889765   21    4 -0.0207613179048   29    5  0.0144110942304 
  24    7  0.0627222896356   24    4 -0.0200200771448   23    6 -0.0132267066157 
  13    4 -0.0519975849093   15    6 -0.0188019658506   19    5 -0.0123225696293 

   A    B    I    J                     A    B    I    J                  
------------------------------------ ------------------------------------ 
   9   26    7    7 -0.0488862431507   19   12    7    7 -0.0371352081830 
  26    9    7    7 -0.0488862431507   12   19    7    7 -0.0371352081830 
  13   15    7    7 -0.0426492811109   13   18    7    7 -0.0371352081830 
  15   13    7    7 -0.0426492811109   18   13    7    7 -0.0371352081830 
  13   26    7    7 -0.0415407071807   13   14    7    7  0.0333394722774 
  26   13    7    7 -0.0415407071807   14   13    7    7  0.0333394722774 
   9   14    7    7  0.0373908337115    9   15    7    7 -0.0301464246635 
  14    9    7    7  0.0373908337115 

 @CHECKOUT-I, Total execution time (CPU/WALL):        8.33/       0.53 seconds.
--executable xncc finished with status     0 in        1.11 seconds (walltime).
  The final electronic energy is      -124.155481499366189 a.u. 
  This computation required                            6.67 seconds (walltime).
