 --invoking executable--
/home/CEISAM/blondel-a/soft/cfour2.1/cfour2.1-serial-mkl/bin/xjoda


   *************************************************************************
         <<<     CCCCCC     CCCCCC   |||     CCCCCC     CCCCCC   >>>
       <<<      CCC        CCC       |||    CCC        CCC         >>>
      <<<      CCC        CCC        |||   CCC        CCC            >>>
    <<<        CCC        CCC        |||   CCC        CCC              >>>
      <<<      CCC        CCC        |||   CCC        CCC            >>>
       <<<      CCC        CCC       |||    CCC        CCC         >>>
         <<<     CCCCCC     CCCCCC   |||     CCCCCC     CCCCCC   >>>
   *************************************************************************

     ****************************************************************
     * CFOUR Coupled-Cluster techniques for Computational Chemistry *
     ****************************************************************
 

   Department of Chemistry                Institut fuer Physikalische Chemie
   University of Florida                  Universitaet Mainz
   Gainesville, FL 32611, USA             D-55099 Mainz, Germany

   Department of Chemistry                Fakultaet fuer Chemie und Biowiss.
   Johns Hopkins University               Karlsruher Institut fuer Technologie
   Baltimore, MD 21218, USA               D-76131 Karlsruhe, Germany

   Department of Chemistry                Department of Physical Chemistry
   Southern Methodist University          Eotvos Lorand University
   Dallas, TX 75275, USA                  H-1053 Budapest, Hungary

 
                       Version 2.1
 
                     nazare097                                         
                     Thu Mar 18 21:05:51 CET 2021                      
                     integer*8 version is running
 
********************************************************************************
*                          Input from ZMAT file                                *
********************************************************************************
Ketene -GS                                                                      
C     0.0000000000            0.0000000000           -1.2494205467              
O     0.0000000000            0.0000000000            0.8926669184              
                                                                                
*CFOUR(COORD=CARTESIAN,UNITS=BOHR                                               
       MEMORY=100,MEM_UNIT=GB,CC_PROG=NCC                                       
       FROZEN_CORE=1                                                            
       CALC=CCSD,BASIS=AUG-PVTZ                                                 
       SCF_CONV=8,CC_CONV=7,ESTATE_CONV=5,ESTATE_MAXCYC=120                     
       EXCITE=EOMEE,ESTATE_SYM=3/2/0/2)                                         
                                                                                
********************************************************************************
    -------------------------------------------------------------------
                    CFOUR Control Parameters 
    -------------------------------------------------------------------
        External           Internal           Value            Units
          Name               Name
    -------------------------------------------------------------------
       ABCDTYPE             IABCDT         STANDARD    [  0]    ***   
       ANHARMONIC           IANHAR         OFF         [  0]    ***   
       ANH_ALGORIT          IANALG         STANDARD    [  0]    ***   
       ANH_DERIVAT          IANDER         SECOND      [  1]    ***   
       ANH_MODE             ANHMOD         VIBRATION   [  0]    ***   
       ANH_STEPSIZ          ICUBST             50000          x 10-6  
       ANH_SYMMETR          IANHSM         ABELIAN     [  0]    ***   
       AO_LADDERS           IAOLAD         SINGLEPASS  [  1]    ***   
       AV_SCF               IAVSCF         OFF         [  0]    ***   
       BASIS                IBASIS         AUG-PVTZ    [ 34]    ***   
       BOTHVECTORS          BOTHVC         OFF         [  0]    ***   
       BOX_POTENT           IPIAB          OFF         [  0]    ***   
       BREIT                IBREIT         OFF         [  0]    ***   
       BRUCK_CONV           IBRTOL          10D-  4             ***   
       BRUECKNER            IBRKNR         OFF         [  0]    ***   
       BUFFERSIZE           IBUFFS              4096            ***   
       CACHE_RECS           ICHREC             10               ***   
       CALCLEVEL            ICLLVL         CCSD        [ 10]    ***   
       CCORBOPT             ICCORB         OFF         [  0]  x 0.01  
       CC_CONV              ICCCNV          10D-  7             ***   
       CC_EXPORDER          ICCEOR              5               ***   
       CC_EXTRAPOL          ICCEXT         DIIS        [  1]    ***   
       CC_GUESS             ICCGES         MP2         [  0]    ***   
       CC_MAXCYC            ICCCYC            100              cycles 
       CC_PROGRAM           ICCPRO         NCC         [  5]    ***   
       CHARGE               ICHRGE              0               ***   
       CHOLESKY             ICHOLE         OFF         [  0]    ***   
       CIS_CONV             ICISTL              5               ***   
       COMM_SIZE            IPSIZE            ***               ***   
       CONSTANT             ICONST         OLD         [  1]    ***   
       CONTINUUM            ICONTU         NONE        [  0]    ***   
       CONTRACTION          ICNTYP         GENERAL     [  1]    ***   
       COORDINATES          ICOORD         CARTESIAN   [  1]    ***   
       CPHF_CONVER          ICPHFT          10D- 16             ***   
       CPHF_MAXCYC          ICPHFC             64              cycles 
       CUBIC                ICUBIC         OFF         [  0]    ***   
       CURVILINEAR          ICURVY         OFF         [  0]    ***   
       DBOC                 IDBOC          OFF         [  0]    ***   
       DCT                  IDCT           OFF         [  0]    ***   
       DERIV_LEV            IDRLVL         ZERO        [  0]    ***   
       DEVMEM_SIZE          IDVMEM         *********           MByte  
       DIAG_MRCC            IEOMST          10D-  0             ***   
       DIFF_TYPE            IDIFTY         RELAXED     [  0]    ***   
       DIRECT               IDIRCT         OFF         [  0]    ***   
       DROPMO               IDRPMO      NONE         
       ECP                  IECP           OFF         [  0]    ***   
       EIGENVECTOR          IVEC                1               ***   
       EL_ANHARM            IELANH         OFF         [  0]    ***   
       EOMFOLLOW            IEOMSR         ENERGY      [  0]    ***   
       EOMIP                IEOMIP         OFF         [  0]    ***   
       EOMLEVEL             HBARFM         SAME        [  0]    ***   
       EOM_MRCC             IMRCCE         NEW         [  1]    ***   
       EOM_NONIT            EOMNON         OFF         [  0]    ***   
       EOM_NSING            IEOMSI          10D-  0             ***   
       EOM_NSTATES          IMRCCD         DAVIDSON    [  0]    ***   
       EOM_NTRIP            IEOMTR          10D-  0             ***   
       EOM_ORDER            IEXORD         ENERGY      [  0]    ***   
       EOM_PROPSTA          IEOMST              0               ***   
       ESTATE_CONV          IEXTOL          10D-  5             ***   
       ESTATE_DIAG          IEXDIG         ITERATIVE   [  0]    ***   
       ESTATE_LOCK          IESLOC         ON          [  1]    ***   
       ESTATE_MAXC          IEXMXC            120               ***   
       ESTATE_PROP          IEXPRP         OFF         [  0]    ***   
       ESTATE_SYM           IEXSYM   3,  2,  0,  2,
       EVAL_HESS            IRECAL              0            # of cyc.
       EXCITATION           IEXCIT              0               ***   
       EXCITE               IEXCIT         EOMEE       [  3]    ***   
       EXTERN_POT           IEXPOT         OFF         [  0]    ***   
       FCGRADNEW            IFCGNW         OFF         [  0]    ***   
       FC_FIELD             IFINFC              0             x 10-6  
       FD_CALTYPE           IFDCAL         GRADONLY    [  0]    ***   
       FD_PROJECT           IFDPRJ         OFF         [  1]    ***   
       FD_STEPSIZE          IDISFD              0            10-4 bohr
       FD_USEGROUP          IFDGRP         FULL        [  0]    ***   
       FILE_RECSIZ          IFLREC              4096           words  
       FINITE_PERT          IFIPER              0             x 10-6  
       FIXGEOM              IFIXGM         OFF         [  0]    ***   
       FOCK                 IFOCK          AO          [  1]    ***   
       FREQ_ALGORI          IVIALG         STANDARD    [  0]    ***   
       FROZEN_CORE          IFROCO         ON          [  1]    ***   
       GAMMA_ABCD           IGABCD         STORE       [  0]    ***   
       GAMMA_ABCI           IGABCI         STORE       [  0]    ***   
       GENBAS_1             IGNBS1              0               ***   
       GENBAS_2             IGNBS2              0               ***   
       GENBAS_3             IGNBS3              0               ***   
       GENBAS_4             IGNBS4              0               ***   
       GEO_CONV             ICONTL              5              H/bohr 
       GEO_MAXCYC           IOPTCY             50               ***   
       GEO_MAXSTEP          IMXSTP            300            millibohr
       GEO_METHOD           INR            SINGLE_POINT[  5]    ***   
       GIAO                 IGIAO          OFF         [  1]    ***   
       GIMIC                IGIMIC         OFF         [  0]    ***   
       GRID                 IGRID          OFF         [  0]    ***   
       GRID_ALGO            IGALGO         SERIAL      [  0]    ***   
       GUESS                IGUESS         MOREAD      [  0]    ***   
       HBAR                 IHBAR          ON          [  1]    ***   
       HESS_TYPE            IHESTP         SCF         [  0]    ***   
       HF2_FILE             IHF2Fl         USE         [  1]    ***   
       HFSTABILITY          ISTABL         OFF         [  0]    ***   
       INCORE               INCORE         OFF         [  0]    ***   
       INPUT_MRCC           IMRCC          ON          [  1]    ***   
       INTEGRALS            INTTYP         VMOL        [  1]    ***   
       JODA_PRINT           IJPRNT              0               ***   
       KEYWORD_OUT          IDMPKW         NO          [  0]    ***   
       LINDEP_TOL           ILINDP              8               ***   
       LINEQ_CONV           IZTACN          10D-  7           cycles  
       LINEQ_EXPOR          ILMAXD              5               ***   
       LINEQ_MAXCY          ILMAXC            100               ***   
       LINEQ_TYPE           ILTYPE         DIIS        [  1]    ***   
       LOCK_ORBOCC          ILOCOC         OFF         [  0]    ***   
       MEMORY_SIZE          IMEMSZ         *********           words  
       MEM_UNIT             IMEMU          GB          [  3]    ***   
       MRCC                 IMRCCC         OFF         [  0]    ***   
       MULTIPLICTY          IMULTP              1               ***   
       NACOUPLING           IVCOUP         OFF         [  0]    ***   
       NEGEVAL              IDIE           ABORT       [  0]    ***   
       NEWNORM              INEWNO         OFF         [  0]    ***   
       NON-HF               INONHF         OFF         [  0]    ***   
       NTOP_TAMP            ITOPT2             15               ***   
       NUC_MODEL            INUCMO         POINT       [  0]    ***   
       OCCUPATION           IOCCU   ESTIMATED BY SCF 
       OPEN-SHELL           IOPEN          SPIN-ORBITAL[  0]    ***   
       OPTVIB               IOPTVB         OFF         [  0]    ***   
       ORBITALS             IORBTP         STANDARD    [  0]    ***   
       PARALLEL             IPARAL         ON          [  1]    ***   
       PARA_INT             IPINTS         ON          [  1]    ***   
       PARA_PRINT           IPPRIN              0               ***   
       PERT_ORB             IPTORB         STANDARD    [  0]    ***   
       POINTS               IGRDFD              0               ***   
       PRINT                IPRNT               0               ***   
       PROPS                IPROPS         OFF         [  0]    ***   
       PROP_INTEGR          IINTYP         INTERNAL    [  0]    ***   
       PSI                  IPSI           OFF         [  0]    ***   
       QC_ALG               IQCALG         FLM         [  0]    ***   
       QC_LINALG            IQCLIN         TRIDIAG     [  2]    ***   
       QC_MAXCYC            IQCMAX          10D-100           cycles  
       QC_MAXSCFCY          IQCMSC          10D- 15           cycles  
       QC_RTRUST            IQCRTR          10D-  0           x 10-3  
       QC_SKIPSCF           IQCSKI         OFF         [  0]    ***   
       QC_START             IQCSTA          10D-  1             ***   
       QRHFGUESS            IQGUES         OFF         [  0]    ***   
       QUARTIC              IQUART         OFF         [  0]    ***   
       RAMAN_INT            IRAMIN         OFF         [  0]    ***   
       RAMAN_ORB            IRAMRE         UNRELAXED   [  0]    ***   
       RDO                  IRDOFM         OFF         [  0]    ***   
       REDUCE_REPR          REDREP         Ir          [  0]    ***   
       REFERENCE            IREFNC         RHF         [  0]    ***   
       RELATIVIST           IRELAT         OFF         [  0]    ***   
       RELAX_DENS           IRDENS         OFF         [  0]    ***   
       RESET_FLAGS          IRESET         OFF         [  0]    ***   
       RESTART_CC           ICCRES         OFF         [  0]    ***   
       ROT_EVEC             ROTVEC              0               ***   
       SAVE_INTS            ISVINT         OFF         [  0]    ***   
       SCALE_ON             ISTCRT              0               ***   
       SCF_CONV             ISCFCV          10D-  8             ***   
       SCF_DAMPING          IDAMP               0             x 10-3  
       SCF_EXPORDE          IRPPOR              6               ***   
       SCF_EXPSTAR          IRPPLS              8               ***   
       SCF_EXTRAPO          IRPP           ON          [  1]    ***   
       SCF_MAXCYC           ISCFCY            150              cycles 
       SCF_NOSTOP           ISCFST         OFF         [  0]    ***   
       SCF_PRINT            ISCFPR              0               ***   
       SCF_PROG             ISCFPR         SCF         [  0]    ***   
       SD_FIELD             IFINSD              0             x 10-6  
       SOPERT               IPERSO         OFF         [  0]    ***   
       SPHERICAL            IDFGHI         ON          [  1]    ***   
       SPINORBIT            ISOCAL         OFF         [  0]    ***   
       SPINROTATIO          ISRCON         OFF         [  0]    ***   
       SPIN_FLIP            ISPFLP         OFF         [  0]    ***   
       SPIN_ORBIT           ISPORB         OFF         [  0]    ***   
       SPIN_SCAL            ISCSMP         OFF         [  0]    ***   
       STEEPSCALE           ISTPSC              1000          x 10-3  
       SUBGROUP             ISUBGP         DEFAULT     [  0]    ***   
       SUBGRPAXIS           ISBXYZ         X           [  0]    ***   
       SYMMETRY             ISYM           ON          [  0]    ***   
       SYM_CHECK            ISYMCK         OVERRIDE    [  1]    ***   
       T3_EXTRAPOL          IT3EXT         OFF         [  0]    ***   
       T4_EXTRAPOL          IT4EXP         OFF         [  0]    ***   
       TAMP_SUM             IEVERY              5               ***   
       TESTSUITE            ITESTS         OFF         [  0]    ***   
       THERMOCH             ITHERM         OFF         [  0]    ***   
       TOL_CHOLESK          ITOLCH          10D-  4             ***   
       TRANGRAD             IRESRM         OFF         [  0]    ***   
       TRANS_INV            ITRAIN         USE         [  0]    ***   
       TREAT_PERT           ITREAT         SIMULTANEOUS[  0]    ***   
       TRIP_ALGORI          ITRALG         NORMAL      [  0]    ***   
       UIJ_THRESHO          IUIJTH              1               ***   
       UNITS                IUNITS         BOHR        [  1]    ***   
       UNOS                 IUNOS          OFF         [  0]    ***   
       UPDATE_HESS          IHUPDT         ON          [  1]    ***   
       VIBPHASE             ISETPH         STANDARD    [  0]    ***   
       VIBRATION            IVIB           NO          [  0]    ***   
       VIB_ALGORIT          IGEALG         STANDARD    [  0]    ***   
       VNATORB              IVNORB         OFF         [  0]    ***   
       VTRAN                IVTRAN         FULL/PARTIAL[  0]    ***   
       XFIELD               IXEFLD              0             x 10-6  
       XFORM_TOL            IXFTOL          10D- 11             ***   
       YFIELD               IYEFLD              0             x 10-6  
       ZFIELD               IZEFLD              0             x 10-6  
       ZSCALE_EXP           IZEXPS         OFF         [  0]    ***   
    -------------------------------------------------------------------
  @GETXYZ-I,     2 atoms read from ZMAT.
   Rotational constants (in cm-1): 
          1.9135333977             1.9135333977
   Rotational constants (in MHz): 
      57366.2961120363         57366.2961120363
********************************************************************************
   The full molecular point group is CXv .
   The largest Abelian subgroup of the full molecular point group is C2v .
   The computational point group is C2v .
********************************************************************************


 ----------------------------------------------------------------
         Coordinates used in calculation (QCOMP) 
 ----------------------------------------------------------------
 Z-matrix   Atomic            Coordinates (in bohr)
  Symbol    Number           X              Y              Z
 ----------------------------------------------------------------
     C         6        -0.00000000     0.00000000     1.22388322
     O         8         0.00000000     0.00000000    -0.91820425
 ----------------------------------------------------------------
 
   Interatomic distance matrix (Angstroms) 
 
                 C             O    
                [ 1]        [ 2]
  C    [ 1]     0.00000
  O    [ 2]     1.13354     0.00000
 rotcon2
   Rotational constants (in cm-1): 
          1.9135333977             0.0000000000
   Rotational constants (in MHz): 
      57366.2961120363             0.0000000000
  There are   2 frozen-core orbitals.
  There are   92 basis functions.
 @GEOPT-W, Archive file not created for single-point calculation.
 @CHECKOUT-I, Total execution time (CPU/WALL):        0.15/       1.35 seconds.
--executable xjoda finished with status     0 in        1.86 seconds (walltime).
 --invoking executable--
/home/CEISAM/blondel-a/soft/cfour2.1/cfour2.1-serial-mkl/bin/xvmol
 SERIAL VERSION OF MOLECULE STARTED
********************************************************************************
                    INPUT FROM MOL FILE
********************************************************************************
INTGRL        1    0    1    0    0    0    0    0    0                         
         *** CFOUR Program System (Release V0.1) ***                            
Ketene -GS                                                                      
    2    2 X  Y       0.10E-08              0    0                              
   9999.00      3.00                                                            
          6.00000000    1    4    1    1    1    1                              
C #1  -0.000000000000000   0.000000000000000   1.223883215473396                
   11    5                                                                      
   8236.00000000000       5.310000000000000E-004 -1.130000000000000E-004        
  0.000000000000000E+000  0.000000000000000E+000  0.000000000000000E+000        
   1235.00000000000       4.108000000000000E-003 -8.780000000000000E-004        
  0.000000000000000E+000  0.000000000000000E+000  0.000000000000000E+000        
   280.800000000000       2.108700000000000E-002 -4.540000000000000E-003        
  0.000000000000000E+000  0.000000000000000E+000  0.000000000000000E+000        
   79.2700000000000       8.185300000000000E-002 -1.813300000000000E-002        
  0.000000000000000E+000  0.000000000000000E+000  0.000000000000000E+000        
   25.5900000000000       0.234817000000000      -5.576000000000000E-002        
  0.000000000000000E+000  0.000000000000000E+000  0.000000000000000E+000        
   8.99700000000000       0.434401000000000      -0.126895000000000             
  0.000000000000000E+000  0.000000000000000E+000  0.000000000000000E+000        
   3.31900000000000       0.346129000000000      -0.170352000000000             
  0.000000000000000E+000  0.000000000000000E+000  0.000000000000000E+000        
  0.905900000000000       3.937800000000000E-002  0.140382000000000             
   1.00000000000000       0.000000000000000E+000  0.000000000000000E+000        
  0.364300000000000      -8.983000000000000E-003  0.598684000000000             
  0.000000000000000E+000  0.000000000000000E+000  0.000000000000000E+000        
  0.128500000000000       2.385000000000000E-003  0.395389000000000             
  0.000000000000000E+000   1.00000000000000       0.000000000000000E+000        
  4.402000000000000E-002  0.000000000000000E+000  0.000000000000000E+000        
  0.000000000000000E+000  0.000000000000000E+000   1.00000000000000             
    6    4                                                                      
   18.7100000000000       1.403100000000000E-002  0.000000000000000E+000        
  0.000000000000000E+000  0.000000000000000E+000                                
   4.13300000000000       8.686600000000000E-002  0.000000000000000E+000        
  0.000000000000000E+000  0.000000000000000E+000                                
   1.20000000000000       0.290216000000000       0.000000000000000E+000        
  0.000000000000000E+000  0.000000000000000E+000                                
  0.382700000000000       0.501008000000000        1.00000000000000             
  0.000000000000000E+000  0.000000000000000E+000                                
  0.120900000000000       0.343406000000000       0.000000000000000E+000        
   1.00000000000000       0.000000000000000E+000                                
  3.569000000000000E-002  0.000000000000000E+000  0.000000000000000E+000        
  0.000000000000000E+000   1.00000000000000                                     
    3    3                                                                      
   1.09700000000000        1.00000000000000       0.000000000000000E+000        
  0.000000000000000E+000                                                        
  0.318000000000000       0.000000000000000E+000   1.00000000000000             
  0.000000000000000E+000                                                        
  0.100000000000000       0.000000000000000E+000  0.000000000000000E+000        
   1.00000000000000                                                             
    2    2                                                                      
  0.761000000000000        1.00000000000000       0.000000000000000E+000        
  0.268000000000000       0.000000000000000E+000   1.00000000000000             
          8.00000000    1    4    1    1    1    1                              
O #2   0.000000000000000   0.000000000000000  -0.918204249626604                
   11    5                                                                      
   15330.0000000000       5.080000000000000E-004 -1.150000000000000E-004        
  0.000000000000000E+000  0.000000000000000E+000  0.000000000000000E+000        
   2299.00000000000       3.929000000000000E-003 -8.950000000000000E-004        
  0.000000000000000E+000  0.000000000000000E+000  0.000000000000000E+000        
   522.400000000000       2.024300000000000E-002 -4.636000000000000E-003        
  0.000000000000000E+000  0.000000000000000E+000  0.000000000000000E+000        
   147.300000000000       7.918100000000000E-002 -1.872400000000000E-002        
  0.000000000000000E+000  0.000000000000000E+000  0.000000000000000E+000        
   47.5500000000000       0.230687000000000      -5.846300000000000E-002        
  0.000000000000000E+000  0.000000000000000E+000  0.000000000000000E+000        
   16.7600000000000       0.433118000000000      -0.136463000000000             
  0.000000000000000E+000  0.000000000000000E+000  0.000000000000000E+000        
   6.20700000000000       0.350260000000000      -0.175740000000000             
  0.000000000000000E+000  0.000000000000000E+000  0.000000000000000E+000        
   1.75200000000000       4.272800000000000E-002  0.160934000000000             
   1.00000000000000       0.000000000000000E+000  0.000000000000000E+000        
  0.688200000000000      -8.154000000000000E-003  0.603418000000000             
  0.000000000000000E+000  0.000000000000000E+000  0.000000000000000E+000        
  0.238400000000000       2.381000000000000E-003  0.378765000000000             
  0.000000000000000E+000   1.00000000000000       0.000000000000000E+000        
  7.376000000000001E-002  0.000000000000000E+000  0.000000000000000E+000        
  0.000000000000000E+000  0.000000000000000E+000   1.00000000000000             
    6    4                                                                      
   34.4600000000000       1.592800000000000E-002  0.000000000000000E+000        
  0.000000000000000E+000  0.000000000000000E+000                                
   7.74900000000000       9.974000000000000E-002  0.000000000000000E+000        
  0.000000000000000E+000  0.000000000000000E+000                                
   2.28000000000000       0.310492000000000       0.000000000000000E+000        
  0.000000000000000E+000  0.000000000000000E+000                                
  0.715600000000000       0.491026000000000        1.00000000000000             
  0.000000000000000E+000  0.000000000000000E+000                                
  0.214000000000000       0.336337000000000       0.000000000000000E+000        
   1.00000000000000       0.000000000000000E+000                                
  5.974000000000000E-002  0.000000000000000E+000  0.000000000000000E+000        
  0.000000000000000E+000   1.00000000000000                                     
    3    3                                                                      
   2.31400000000000        1.00000000000000       0.000000000000000E+000        
  0.000000000000000E+000                                                        
  0.645000000000000       0.000000000000000E+000   1.00000000000000             
  0.000000000000000E+000                                                        
  0.214000000000000       0.000000000000000E+000  0.000000000000000E+000        
   1.00000000000000                                                             
    2    2                                                                      
   1.42800000000000        1.00000000000000       0.000000000000000E+000        
  0.500000000000000       0.000000000000000E+000   1.00000000000000             
FINISH                                                                          
 
********************************************************************************
 ONE- AND TWO-ELECTRON INTEGRALS OVER SYMMETRY-ADAPTED AOS ARE CALCULATED.

  SPHERICAL HARMONICS ARE USED.
  
  INTEGRALS LESS THAN  0.10E-13 ARE NEGLECTED.

  NUCLEAR REPULSION ENERGY :   22.4080485891 A.U.
  @MOLECU-I, ONE ELECTRON INTEGRALS (CPU/WALL):        0.03/       0.04 SECONDS.
  @TWOEL-I,     195611 INTEGRALS OF SYMMETRY TYPE  I I I I
  @TWOEL-I,     731801 INTEGRALS OF SYMMETRY TYPE  I J I J
  @TWOEL-I,     399465 INTEGRALS OF SYMMETRY TYPE  I I J J
  @TWOEL-I,     472704 INTEGRALS OF SYMMETRY TYPE  I J K L
  @TWOEL-I, TOTAL NUMBER OF 2-E INTEGRALS    1799581.
  @MOLECU-I, TWO ELECTRON INTEGRALS (CPU/WALL):       21.40/       1.14 SECONDS.
 @CHECKOUT-I, Total execution time (CPU/WALL):       21.45/       1.20 seconds.

Running with 20 threads/proc

--executable xvmol finished with status     0 in        1.70 seconds (walltime).
 --invoking executable--
/home/CEISAM/blondel-a/soft/cfour2.1/cfour2.1-serial-mkl/bin/xvmol2ja
 @GETMEM-I,  Allocated   95367 MB of main memory.
 @CHECKOUT-I, Total execution time (CPU/WALL):        0.17/       0.04 seconds.
--executable xvmol2ja finished with status     0 in        0.52 seconds (walltime).
 --invoking executable--
/home/CEISAM/blondel-a/soft/cfour2.1/cfour2.1-serial-mkl/bin/xvscf
  There are   92 functions in the AO basis.

  There are 4 irreducible representations.

       Irrep        # of functions
         1                 38
         2                 22
         3                 22
         4                 10


  Parameters for SCF calculation: 
        SCF reference function:  RHF  
  Maximum number of iterations:  150
     Full symmetry point group: CXv 
     Computational point group: C2v 
        Initial density matrix: MOREAD                 
     SCF convergence tolerance: 10**(- 8)
  DIIS convergence acceleration:  ON
          Latest start for DIIS:   8
                     DIIS order:   6

  Memory information:     434642 words required.
  Fock matrices are constructed from AO integral file.
 @GETMEM-I,  Allocated       3 MB of main memory.
  Initialization and symmetry analysis required      0.002 seconds.

  @INITGES-I, Occupancies from core Hamiltonian:

          Alpha population by irrep:   5    1    1    0
           Beta population by irrep:   5    1    1    0


 total no. of electrons in initial guess :  0.000000000000000E+000
  --------------------------------------------------------------------
  Iteration         Total Energy            Largest Density Difference
  --------------------------------------------------------------------
       0            22.408048589070660              0.0000000000D+00
   current occupation vector 
     5  1  1  0
     5  1  1  0
       1           -93.621510780875269              0.1313411998D+02
   current occupation vector 
     5  1  1  0
     5  1  1  0
       2           -97.236175059963003              0.1312977378D+02
   current occupation vector 
     5  1  1  0
     5  1  1  0
       3          -103.512888306912956              0.9956581011D+01
   current occupation vector 
     5  1  1  0
     5  1  1  0
       4          -100.486179412931122              0.7252816518D+01
   current occupation vector 
     5  1  1  0
     5  1  1  0
       5          -103.311521249807726              0.5729123518D+01
   current occupation vector 
     5  1  1  0
     5  1  1  0
       6          -100.396662594627841              0.5727365702D+01
   current occupation vector 
     5  1  1  0
     5  1  1  0
       7          -103.257540083875142              0.5523473181D+01
   current occupation vector 
     5  1  1  0
     5  1  1  0
       8          -100.235828625087223              0.5509754073D+01
   current occupation vector 
     5  1  1  0
     5  1  1  0
       9          -110.840848479788377              0.4228957523D+01
   current occupation vector 
     5  1  1  0
     5  1  1  0
      10          -112.258870155354657              0.9643320498D+00
   current occupation vector 
     5  1  1  0
     5  1  1  0
      11          -112.764469500723152              0.5492764774D+00
   current occupation vector 
     5  1  1  0
     5  1  1  0
      12          -112.780203191673451              0.1017426116D+00
   current occupation vector 
     5  1  1  0
     5  1  1  0
      13          -112.780648917639809              0.2247135586D-01
   current occupation vector 
     5  1  1  0
     5  1  1  0
      14          -112.780734160843281              0.1404540202D-01
   current occupation vector 
     5  1  1  0
     5  1  1  0
      15          -112.780737663311385              0.3792533646D-02
   current occupation vector 
     5  1  1  0
     5  1  1  0
      16          -112.780737698394148              0.3209580904D-03
   current occupation vector 
     5  1  1  0
     5  1  1  0
      17          -112.780737699021728              0.3363955982D-04
   current occupation vector 
     5  1  1  0
     5  1  1  0
      18          -112.780737699046540              0.6181954364D-05
   current occupation vector 
     5  1  1  0
     5  1  1  0
      19          -112.780737699047421              0.1380788748D-05
   current occupation vector 
     5  1  1  0
     5  1  1  0
      20          -112.780737699047137              0.1622119914D-06
   current occupation vector 
     5  1  1  0
     5  1  1  0
      21          -112.780737699047506              0.1785641746D-07
   current occupation vector 
     5  1  1  0
     5  1  1  0

  SCF has converged.

 Density matrix saved to file den.dat
 total electron number:   14.0000000000001     
     E(SCF)=      -112.780737699047421              0.4576049539D-08

  Eigenvector printing suppressed.

 @PUTMOS-I, Writing converged MOs to NEWMOS. 
 @PUTMOS-I, Symmetry   1 Full Blocks  9 Partial Blocksize   2
 @PUTMOS-I, Symmetry   2 Full Blocks  5 Partial Blocksize   2
 @PUTMOS-I, Symmetry   3 Full Blocks  5 Partial Blocksize   2
 @PUTMOS-I, Symmetry   4 Full Blocks  2 Partial Blocksize   2
 @PUTFOCK-I, Writing converged Fock matrix to NEWFOCK. 
 @PUTFOCK-I, Symmetry   1 Full Blocks  9 Partial Blocksize   2
 @PUTFOCK-I, Symmetry   2 Full Blocks  5 Partial Blocksize   2
 @PUTFOCK-I, Symmetry   3 Full Blocks  5 Partial Blocksize   2
 @PUTFOCK-I, Symmetry   4 Full Blocks  2 Partial Blocksize   2


 
  ORBITAL EIGENVALUES (ALPHA)  (1H = 27.2113834 eV)

       MO #        E(hartree)               E(eV)           FULLSYM    COMPSYM
       ----   --------------------   --------------------   -------   ---------
    1     1         -20.6684180932        -562.4162490067     SG+        A1 (1)
    2     2         -11.3643108924        -309.2386207706     SG+        A1 (1)
    3     3          -1.5194102344         -41.3452544289     SG+        A1 (1)
    4     4          -0.8044591745         -21.8904470282     SG+        A1 (1)
    5    39          -0.6382302617         -17.3671283473      PI        B1 (2)
    6    61          -0.6382302617         -17.3671283473      PI        B2 (3)
    7     5          -0.5555452437         -15.1171546225     SG+        A1 (1)
  +++++++++++++++++++++++++++++++++++++++++++++++++++++++++++++++++++++++++++++
    8     6           0.0693503575           1.8871191658     SG+        A1 (1)
    9    40           0.0700098361           1.9050644931      PI        B1 (2)
   10    62           0.0700098361           1.9050644931      PI        B2 (3)
   11     7           0.0877478733           2.3877410220     SG+        A1 (1)
   12    41           0.1524638544           4.1487523964      PI        B1 (2)
   13    63           0.1524638544           4.1487523964      PI        B2 (3)
   14     8           0.1852720425           5.0415085815     SG+        A1 (1)
   15    42           0.1981449776           5.3917989536      PI        B1 (2)
   16    64           0.1981449776           5.3917989536      PI        B2 (3)
   17     9           0.2688796499           7.3165872430     SG+        A1 (1)
   18    83           0.2961054844           8.0574398625      DE        A2 (4)
   19    10           0.2961054844           8.0574398625      DE        A1 (1)
   20    11           0.3924118406          10.6780690446     SG+        A1 (1)
   21    43           0.4137873513          11.2597262628      PI        B1 (2)
   22    65           0.4137873513          11.2597262628      PI        B2 (3)
   23    12           0.5001983606          13.6110893671     SG+        A1 (1)
   24    44           0.5079672848          13.8224925415      PI        B1 (2)
   25    66           0.5079672848          13.8224925415      PI        B2 (3)
   26    13           0.6701205551          18.2349073496     SG+        A1 (1)
   27    14           0.7248386346          19.7238619888      DE        A1 (1)
   28    84           0.7248386346          19.7238619888      DE        A2 (4)
   29    15           0.7872570869          21.4223544267     SG+        A1 (1)
   30    45           0.8416439342          22.9022957795      PI        B1 (2)
   31    67           0.8416439342          22.9022957795      PI        B2 (3)
   32    16           1.0059501408          27.3732949626     SG+        A1 (1)
   33    85           1.0473845470          28.5007824764      DE        A2 (4)
   34    17           1.0473845470          28.5007824764      DE        A1 (1)
   35    68           1.0722216087          29.1766332832      PH        B2 (3)
   36    46           1.0722216087          29.1766332832      PH        B1 (2)
   37    47           1.0874918273          29.5921570563      PI        B1 (2)
   38    69           1.0874918273          29.5921570563      PI        B2 (3)
   39    48           1.2200613117          33.1995561252      PI        B1 (2)
   40    70           1.2200613117          33.1995561252      PI        B2 (3)
   41    18           1.2519838437          34.0682123828     SG+        A1 (1)
   42    19           1.2754418008          34.7065358450      DE        A1 (1)
   43    86           1.2754418008          34.7065358450      DE        A2 (4)
   44    20           1.3814526339          37.5912372696     SG+        A1 (1)
   45    49           1.4882031092          40.4960653807      PI        B1 (2)
   46    71           1.4882031092          40.4960653807      PI        B2 (3)
   47    21           1.5326583675          41.7057544590     SG+        A1 (1)
   48    72           2.1425131043          58.3007455202      PH        B2 (3)
   49    50           2.1425131043          58.3007455202      PH        B1 (2)
   50    22           2.1786411054          59.2838384112      DE        A1 (1)
   51    87           2.1786411054          59.2838384112      DE        A2 (4)
   52    51           2.3221731944          63.1895451135      PI        B1 (2)
   53    73           2.3221731944          63.1895451135      PI        B2 (3)
   54    23           2.3582357883          64.1708581828     SG+        A1 (1)
   55    24           2.4350775791          66.2618296147     SG+        A1 (1)
   56    52           2.5691389634          69.9098253406      PI        B1 (2)
   57    74           2.5691389634          69.9098253406      PI        B2 (3)
   58    88           2.5804508197          70.2176365984      DE        A2 (4)
   59    25           2.5804508197          70.2176365984      DE        A1 (1)
   60    26           2.6735074363          72.7498358710     SG+        A1 (1)
   61    53           2.9683229099          80.7721727550      PI        B1 (2)
   62    75           2.9683229099          80.7721727550      PI        B2 (3)
   63    89           3.3941551012          92.3596557768      DE        A2 (4)
   64    27           3.3941551012          92.3596557768      DE        A1 (1)
   65    54           3.4193381465          93.0449212777      PH        B1 (2)
   66    76           3.4193381465          93.0449212777      PH        B2 (3)
   67    28           3.4796987815          94.6874176609     SG+        A1 (1)
   68    55           3.6218824925          98.5564331329      PI        B1 (2)
   69    77           3.6218824925          98.5564331329      PI        B2 (3)
   70    90           3.7397976084         101.7650665607      DE        A2 (4)
   71    29           3.7397976084         101.7650665607      DE        A1 (1)
   72    78           3.9831489504         108.3869932287      PI        B2 (3)
   73    56           3.9831489504         108.3869932287      PI        B1 (2)
   74    30           4.0191699085         109.3671733312     SG+        A1 (1)
   75    31           4.3759262505         119.0750069327     SG+        A1 (1)
   76    79           5.2187033222         142.0081369525      PI        B2 (3)
   77    57           5.2187033222         142.0081369525      PI        B1 (2)
   78    32           5.3267992034         144.9495754193     SG+        A1 (1)
   79    80           6.4667079657         175.9680697905      PH        B2 (3)
   80    58           6.4667079657         175.9680697905      PH        B1 (2)
   81    91           6.7459532682         183.5667207795      DE        A2 (4)
   82    33           6.7459532682         183.5667207795      DE        A1 (1)
   83    34           7.0264218248         191.1986582054      DE        A1 (1)
   84    92           7.0264218248         191.1986582054      DE        A2 (4)
   85    59           7.0965916057         193.1080750151      PI        B1 (2)
   86    81           7.0965916057         193.1080750151      PI        B2 (3)
   87    35           7.2011917713         195.9543902269     SG+        A1 (1)
   88    60           7.4289056022         202.1507985843      PI        B1 (2)
   89    82           7.4289056022         202.1507985843      PI        B2 (3)
   90    36           7.6033547041         206.8977999799     SG+        A1 (1)
   91    37          12.5019092350         340.1942454250     SG+        A1 (1)
   92    38          15.1652338122         412.6669916140     SG+        A1 (1)


  VSCF finished.

 @CHECKOUT-I, Total execution time (CPU/WALL):        5.18/       0.69 seconds.
--executable xvscf finished with status     0 in        1.18 seconds (walltime).
 --invoking executable--
/home/CEISAM/blondel-a/soft/cfour2.1/cfour2.1-serial-mkl/bin/xvtran
 @GETMEM-I,  Allocated   95367 MB of main memory.
  Full RHF integral transformation
  The following   2 MOs will be dropped:
    1  2
  There are  90 active molecular orbitals.
  Transformation of IIII integrals :
  1 pass through the AO integral file was required.
      195611 AO integrals were read.
      259099 MO integrals were written to HF2.
  Transformation of IIJJ integrals :
  1 pass through the AO integral file was required.
      399465 AO integrals were read.
      456144 MO integrals were written to HF2.
  Transformation of IJIJ integrals :
  1 pass through the AO integral file was required.
      731801 AO integrals were read.
      814189 MO integrals were written to HF2.
  Transformation of IJKL integrals :
  1 pass through the AO integral file was required.
      472704 AO integrals were read.
      498604 MO integrals were written to HF2.
  Summary of active molecular orbitals: 
------------------------------------------------------------------------
 
  Index      Eigenvalue    Symmetry    Index      Eigenvalue    Symmetry
------------------------------------------------------------------------
     1        -1.5194102        1        46         1.0874918        2
     2        -0.8044592        1        47         1.2200613        2
     3        -0.5555452        1        48         1.4882031        2
     4        -0.6382303        2        49         2.1425131        2
     5        -0.6382303        3        50         2.3221732        2
     6         0.0693504        1        51         2.5691390        2
     7         0.0877479        1        52         2.9683229        2
     8         0.1852720        1        53         3.4193381        2
     9         0.2688796        1        54         3.6218825        2
    10         0.2961055        1        55         3.9831490        2
    11         0.3924118        1        56         5.2187033        2
    12         0.5001984        1        57         6.4667080        2
    13         0.6701206        1        58         7.0965916        2
    14         0.7248386        1        59         7.4289056        2
    15         0.7872571        1        60         0.0700098        3
    16         1.0059501        1        61         0.1524639        3
    17         1.0473845        1        62         0.1981450        3
    18         1.2519838        1        63         0.4137874        3
    19         1.2754418        1        64         0.5079673        3
    20         1.3814526        1        65         0.8416439        3
    21         1.5326584        1        66         1.0722216        3
    22         2.1786411        1        67         1.0874918        3
    23         2.3582358        1        68         1.2200613        3
    24         2.4350776        1        69         1.4882031        3
    25         2.5804508        1        70         2.1425131        3
    26         2.6735074        1        71         2.3221732        3
    27         3.3941551        1        72         2.5691390        3
    28         3.4796988        1        73         2.9683229        3
    29         3.7397976        1        74         3.4193381        3
    30         4.0191699        1        75         3.6218825        3
    31         4.3759263        1        76         3.9831490        3
    32         5.3267992        1        77         5.2187033        3
    33         6.7459533        1        78         6.4667080        3
    34         7.0264218        1        79         7.0965916        3
    35         7.2011918        1        80         7.4289056        3
    36         7.6033547        1        81         0.2961055        4
    37        12.5019092        1        82         0.7248386        4
    38        15.1652338        1        83         1.0473845        4
    39         0.0700098        2        84         1.2754418        4
    40         0.1524639        2        85         2.1786411        4
    41         0.1981450        2        86         2.5804508        4
    42         0.4137874        2        87         3.3941551        4
    43         0.5079673        2        88         3.7397976        4
    44         0.8416439        2        89         6.7459533        4
    45         1.0722216        2        90         7.0264218        4
------------------------------------------------------------------------
  -1.51941023435551      -0.804459174547025      -0.555545243706087     
 -0.638230261653789      -0.638230261653780       6.935035746057559E-002
  8.774787326662539E-002  0.185272042488743       0.268879649940469     
  0.296105484388348       0.392411840576640       0.500198360628526     
  0.670120555120566       0.724838634584074       0.787257086924915     
   1.00595014080023        1.04738454702922        1.25198384374639     
   1.27544180076308        1.38145263388490        1.53265836749206     
   2.17864110544255        2.35823578829241        2.43507757913914     
   2.58045081965362        2.67350743626750        3.39415510116247     
   3.47969878153766        3.73979760840432        4.01916990854637     
   4.37592625050663        5.32679920342717        6.74595326820054     
   7.02642182482443        7.20119177134098        7.60335470411611     
   12.5019092349768        15.1652338121853       7.000983614281162E-002
  0.152463854387612       0.198144977575993       0.413787351318762     
  0.507967284806279       0.841643934189495        1.07222160866695     
   1.08749182727256        1.22006131173743        1.48820310916922     
   2.14251310428564        2.32217319437958        2.56913896338580     
   2.96832290985284        3.41933814646573        3.62188249248970     
   3.98314895040374        5.21870332224566        6.46670796570036     
   7.09659160566835        7.42890560221518       7.000983614281349E-002
  0.152463854387622       0.198144977576016       0.413787351318820     
  0.507967284806349       0.841643934189521        1.07222160866694     
   1.08749182727273        1.22006131173760        1.48820310916929     
   2.14251310428564        2.32217319437971        2.56913896338582     
   2.96832290985357        3.41933814646574        3.62188249248971     
   3.98314895040372        5.21870332224551        6.46670796570033     
   7.09659160566836        7.42890560221539       0.296105484388333     
  0.724838634584084        1.04738454702921        1.27544180076309     
   2.17864110544256        2.58045081965362        3.39415510116244     
   3.73979760840430        6.74595326820053        7.02642182482448     
 @CHECKOUT-I, Total execution time (CPU/WALL):        9.80/       0.62 seconds.
--executable xvtran finished with status     0 in        1.10 seconds (walltime).
 --invoking executable--
/home/CEISAM/blondel-a/soft/cfour2.1/cfour2.1-serial-mkl/bin/xintprc
 @GETMEM-I,  Allocated   95367 MB of main memory.
  Processing integrals for CCSD calculation.
  @GMOIAA-I, Processing MO integrals for spin case AA.
  @GMOIAA-I, Generation of integral list completed.
                      TYPE                NUMBER
                      ----               --------
                      PPPP               1606966
                      PPPH                381198
                      PPHH                 23375
                      PHPH                 14623
                      PHHH                  1825
                      HHHH                    49

                     TOTAL               2028036

  @FORMT2-I, Second-order MP correlation energies:
            ------------------------------------------------
            E(SCF)                  =   -112.780737699047 a.u.
            E2(AA)                  =     -0.045677190832 a.u.
            E2(AB)                  =     -0.270257818426 a.u.
            E2(TOT)                 =     -0.361612200091 a.u.
            Total MP2 energy        =   -113.142349899138 a.u.
            ------------------------------------------------
   Largest T2 amplitudes for spin case AB:
       _       _                 _       _                 _       _
   i   j   a   b             i   j   a   b             i   j   a   b
-----------------------------------------------------------------------------
[  5   5  61  61]-0.03906 [  4   4  40  40]-0.03906 [  5   4  61  40]-0.03137
[  4   5  40  61]-0.03137 [  3   3  61  61]-0.02991 [  3   3  40  40]-0.02991
[  5   5  61  60]-0.02006 [  5   5  60  61]-0.02006 [  4   4  40  39]-0.02006
[  4   4  39  40]-0.02006 [  3   3  15  15]-0.01992 [  4   4  41  40]-0.01918
[  4   4  40  41]-0.01918 [  5   5  62  61]-0.01918 [  5   5  61  62]-0.01918
-----------------------------------------------------------------------------
   Norm of T2AB vector (    47537 symmetry allowed elements):  0.2791880945.
-----------------------------------------------------------------------------
 @CHECKOUT-I, Total execution time (CPU/WALL):        4.14/       0.68 seconds.
--executable xintprc finished with status     0 in        1.16 seconds (walltime).
  calling xncc 
 --invoking executable--
/home/CEISAM/blondel-a/soft/cfour2.1/cfour2.1-serial-mkl/bin/xncc
 @GETMEM-I,  Allocated       7 MB of main memory.

Running with 20 threads/proc

Following the lowest-energy eigenvector.
Using discrete restarting.
Using an orthogonal subspace.
Orthogonalizing against previous roots.
Using Modified Gram-Schmidt orthogonalization.

Using DIIS to accelerate the convergence of T1 and T2
Using immediate high-order contributions
Damping factor for T3: 0.000000
Damping factor for T4: 0.000000

Transposes are coarse-threaded

Memory limit:                 93.132 GiB
Minimum memory requirement:   29.980 MiB
Compromise memory amount:     52.896 MiB
Optimal memory requirement:  165.520 MiB

List              Location   Size        Cached Hunks Est. Disk I/O
----------------- ---------- ----------- ------ ----- -------------

           HR_DAV      470:1   12.004 MiB    Yes     -     3.357 GiB
                R        471    2.436 MiB    Yes     -   219.214 MiB
            R_DAV      470:0   12.004 MiB    Yes     -     7.219 GiB
           T_DIIS       70:0    1.819 MiB    Yes     -    32.738 MiB
           Z_DIIS       70:1    1.819 MiB    Yes     -    54.563 MiB
          <AI|bj>         18  371.383 KiB    Yes     -    14.244 MiB
          <Ab|Cd>        233  100.632 MiB    Yes     -    11.891 GiB
          <Ab|Ci>         30    5.996 MiB    Yes     -     4.772 GiB
          <Ab|Ij>         16  371.383 KiB    Yes     -   373.196 MiB
          <Ai|Bj>         25  371.383 KiB    Yes     -    11.968 MiB
          <Aj|bI>         21  371.383 KiB     No     -         0   B
          <Ij|Ka>         10   23.180 KiB    Yes     -    17.588 MiB
          <Ij|Kl>         13    1.539 KiB    Yes     -    24.625 KiB
           DD(AI)      448:8    1.102 KiB    Yes     -    93.781 KiB
        DD(Ab,Ij)        450  371.383 KiB    Yes     -    37.480 MiB
            F(EA)       92:0   16.180 KiB    Yes     -     9.780 MiB
            F(EM)       93:0    1.102 KiB    Yes     -   236.836 KiB
            F(MI)       91:0       88   B    Yes     -    54.484 KiB
           HR(AI)      490:2    1.102 KiB    Yes     -     6.151 MiB
        HR(Ab,Ij)        463  371.383 KiB    Yes     -     2.669 GiB
            R(AI)      490:0    1.102 KiB    Yes     -    18.057 MiB
         R(Ab,Ij)        446  371.383 KiB    Yes     -     7.384 GiB
            T(AI)       90:0    1.102 KiB    Yes     -  1006.828 KiB
         T(Ab,Ij)         46  371.383 KiB    Yes     -   162.117 MiB
         W(Mn,Ij)         53    1.539 KiB    Yes     -   210.852 KiB
        W~(Ab,Ej)        130    5.996 MiB    Yes     -   653.563 MiB
        W~(EM,bj)         56  371.383 KiB    Yes     -    79.130 MiB
        W~(Em,Bj)         58  371.383 KiB    Yes     -    68.546 MiB
        W~(Ij,Mb)        110   23.180 KiB    Yes     -     3.486 MiB
       W~~(EM,bj)         76  371.383 KiB    Yes     -     2.901 MiB
       W~~(Em,Bj)         78  371.383 KiB    Yes     -     2.901 MiB
         X(Ab,Ej)        430    5.996 MiB     No     -         0   B
         X(Ab,Ij)        416  371.383 KiB     No     -         0   B
            X(EA)      492:0   16.180 KiB    Yes     -     8.864 MiB
            X(EM)      493:0    1.102 KiB    Yes     -   182.578 KiB
         X(EM,bj)        418  371.383 KiB     No     -         0   B
         X(Ef,Am)        469    5.996 MiB     No     -         0   B
         X(Em,Bj)        425  371.383 KiB     No     -         0   B
         X(Ij,Mb)        410   23.180 KiB    Yes     -     6.491 MiB
            X(MI)      491:0       88   B    Yes     -    34.453 KiB
         X(Mn,Ie)        465   23.180 KiB     No     -         0   B
         X(Mn,Ij)        413    1.539 KiB    Yes     -   266.016 KiB
            Z(AI)       90:2    1.102 KiB    Yes     -   165.234 KiB
         Z(Ab,Ij)         63  371.383 KiB    Yes     -    54.402 MiB

Simulation and memory analysis took 0.156 seconds

MP2 correlation energy:  -0.361612200091040

Non-iterative calculation of MP2 took 0.160 cpu seconds and 0.014 walltime seconds at 0.159 Gflops/sec

Total MP2 energy: -113.142349899138466

Beginning iterative solution of CCSD equations:

It.  Correlation Energy T1 Residual T2 Residual CPU Time (s) Walltime (s)
-------------------------------------------------------------------------
  1  -0.348612571458279 2.62086e-02 8.63207e-03        3.007        0.192
  2  -0.363452760254440 3.95728e-03 6.12132e-03        1.520        0.082
  3  -0.361985564919310 4.48090e-03 2.01663e-03        0.981        0.049
  4  -0.363529298306544 5.64803e-04 3.95874e-04        0.893        0.045
  5  -0.363729394230481 2.56350e-04 1.55498e-04        0.784        0.039

   A    I                     A    I                     A    I                  
-------------------------- -------------------------- -------------------------- 
  13    6  0.0296075050311    9    5  0.0121156806336    8    7  0.0073488538468 
  12    5  0.0296075050311   17    7 -0.0093633265191   15    5  0.0070340817393 
  24    5  0.0139295729648   37    5  0.0090416024413   16    6  0.0070340817393 
  25    6  0.0139295729648   38    6  0.0090416024413   29    4  0.0056717365903 
  10    6  0.0121156806336   29    7 -0.0079231228699   32    7 -0.0054348769499 

   A    B    I    J                     A    B    I    J                  
------------------------------------ ------------------------------------ 
  13   13    7    7 -0.0453379274176   10   13    6    6 -0.0224283350836 
  12   12    7    7 -0.0453379274176   12    9    5    5 -0.0224283350836 
  13   13    6    6 -0.0429163000957    9   12    5    5 -0.0224283350836 
  12   12    5    5 -0.0429163000957   15   12    5    5 -0.0218342250609 
  13   12    6    5 -0.0289714985639   12   15    5    5 -0.0218342250609 
  12   13    5    6 -0.0289714985639   16   13    6    6 -0.0218342250608 
  29   29    7    7 -0.0234397948709   13   16    6    6 -0.0218342250608 
  13   10    6    6 -0.0224283350836 

It.  Correlation Energy T1 Residual T2 Residual CPU Time (s) Walltime (s)
-------------------------------------------------------------------------
  6  -0.363727803164513 5.02430e-05 3.52742e-05        0.746        0.037
  7  -0.363730227605566 1.57993e-05 1.38090e-05        0.720        0.036
  8  -0.363730386618562 6.47009e-06 2.82853e-06        0.766        0.038
  9  -0.363730965052114 1.12610e-06 6.19257e-07        0.781        0.039
 10  -0.363731069587077 7.60197e-07 2.25168e-07        0.721        0.036

   A    I                     A    I                     A    I                  
-------------------------- -------------------------- -------------------------- 
  13    6  0.0297067678905    9    5  0.0121506897717    8    7  0.0074346111929 
  12    5  0.0297067678905   17    7 -0.0094399339651   15    5  0.0070497683150 
  24    5  0.0139652984955   37    5  0.0090522165390   16    6  0.0070497683150 
  25    6  0.0139652984955   38    6  0.0090522165390   29    4  0.0056299381631 
  10    6  0.0121506897717   29    7 -0.0079554455582   32    7 -0.0054380419427 

   A    B    I    J                     A    B    I    J                  
------------------------------------ ------------------------------------ 
  13   13    7    7 -0.0452689177897   10   13    6    6 -0.0224441761628 
  12   12    7    7 -0.0452689177897   12    9    5    5 -0.0224441761628 
  13   13    6    6 -0.0429495292466    9   12    5    5 -0.0224441761628 
  12   12    5    5 -0.0429495292466   15   12    5    5 -0.0218465727929 
  13   12    6    5 -0.0289840558011   12   15    5    5 -0.0218465727929 
  12   13    5    6 -0.0289840558011   16   13    6    6 -0.0218465727929 
  29   29    7    7 -0.0234333596579   13   16    6    6 -0.0218465727929 
  13   10    6    6 -0.0224441761628 

It.  Correlation Energy T1 Residual T2 Residual CPU Time (s) Walltime (s)
-------------------------------------------------------------------------
 11  -0.363731138015427 1.14898e-07 6.71729e-08        0.934        0.047
 12  -0.363731154165233 5.02272e-08 2.59798e-08        0.736        0.037

CCSD iterations converged in 12 cycles and 0.679 seconds (0.057 s/it.) at 5.862 Gflops/sec

Total CCSD energy: -113.144468853212658

             _
Formation of H took 0.083 seconds at 7.948 Gflops/sec

Searching for 3 roots in irrep 1

EOMEE-CCSD guess vector:

   A    I                  
-------------------------- 
   8    7  1.0000000000000 

Beginning iterative solution of EOMEE-CCSD equations:

It.  Correlation Energy R1 Residual R2 Residual CPU Time (s) Walltime (s)
-------------------------------------------------------------------------
  1   0.526491226665614 2.22690e-02 6.08810e-02        0.936        0.047
  2   0.466883964607656 6.51888e-02 3.96342e-02        0.629        0.032
  3   0.423808285342777 1.49094e-02 1.21676e-02        0.646        0.032
  4   0.416291489132345 1.67836e-02 6.16621e-03        0.677        0.034
  5   0.414285474493545 4.67901e-03 2.84363e-03        0.776        0.039
  6   0.413289057885229 4.93024e-03 1.43160e-03        1.353        0.068
  7   0.413005832673535 4.09540e-03 7.03591e-04        0.750        0.038
  8   0.412807012573681 4.36791e-03 9.11366e-04        0.796        0.040
  9   0.412671522058737 3.33498e-03 7.58410e-04        0.845        0.042
 10   0.412534469426180 2.30864e-03 7.70140e-04        0.863        0.043
 11   0.412483901407661 1.70395e-03 7.43781e-04        0.902        0.045
 12   0.412423649005339 3.59295e-04 2.36457e-04        0.942        0.047
Locking on root: 0.412401266212022
 13   0.412401266212022 3.36957e-04 7.21521e-05        0.983        0.049
 14   0.412397830528775 1.21452e-04 3.85376e-05        1.024        0.051
 15   0.412395913005029 5.02710e-05 2.53623e-05        1.057        0.053
 16   0.412396028062343 4.05691e-05 6.36337e-06        1.083        0.054
 17   0.412395837542411 1.41237e-05 4.37508e-06        1.128        0.056
 18   0.412395839221896 5.45655e-06 3.91023e-06        1.196        0.060

EOMEE-CCSD iterations converged in 18 cycles and 0.831 seconds (0.046 s/it.) at 11.247 Gflops/sec

EOMEE-CCSD excitation energy:   0.412395839221901 ( 11.221861293631903 eV)
Total EOMEE-CCSD energy:      -112.732073013990757

Converged root:

   A    I                     A    I                     A    I                  
-------------------------- -------------------------- -------------------------- 
   8    7  0.6023623760600   12    5  0.0792559860728   24    5  0.0265790626929 
  11    7  0.2050942969123   10    6  0.0417683741087   20    7 -0.0226343906314 
  17    7 -0.1558436098817    9    5  0.0417683741086   29    7 -0.0150183282990 
  14    7 -0.1063678424816   26    7  0.0277628143979   37    5  0.0125062652482 
  13    6  0.0792559860729   25    6  0.0265790626929   38    6  0.0125062652482 

   A    B    I    J                     A    B    I    J                  
------------------------------------ ------------------------------------ 
   8    8    7    7 -0.0534855893190    8   11    7    7 -0.0363447095458 
  13    8    6    7  0.0529685039578   24    8    5    7  0.0358596451028 
   8   13    7    6  0.0529685039578    8   24    7    5  0.0358596451028 
  12    8    5    7  0.0529685039578   25    8    6    7  0.0358596451028 
   8   12    7    5  0.0529685039578    8   25    7    6  0.0358596451028 
  29    8    7    7  0.0426200107654   17    8    7    7  0.0321353343016 
   8   29    7    7  0.0426200107654    8   17    7    7  0.0321353343016 
  11    8    7    7 -0.0363447095458 

EOMEE-CCSD guess vector:

   A    I                  
-------------------------- 
  11    7  1.0000000000000 

Beginning iterative solution of EOMEE-CCSD equations:

It.  Correlation Energy R1 Residual R2 Residual CPU Time (s) Walltime (s)
-------------------------------------------------------------------------
  1   0.529722452545567 1.00431e-01 7.68319e-02        0.573        0.029
  2   0.445129456651889 4.00685e-02 8.75914e-03        0.606        0.030
  3   0.435526568932351 9.81869e-03 4.58060e-03        0.647        0.032
  4   0.432808083692160 5.88065e-03 3.80384e-03        0.678        0.034
  5   0.432156009166117 2.67185e-03 1.01502e-03        0.713        0.036
  6   0.431908784375343 1.66323e-03 6.82465e-04        0.754        0.038
Locking on root: 0.431866413177463
  7   0.431866413177463 9.63603e-04 6.79057e-04        0.783        0.039
  8   0.431838108049059 5.78589e-04 4.79817e-04        0.845        0.042
  9   0.431827509791951 3.34827e-04 2.89946e-04        0.860        0.043
 10   0.431822003043078 2.25768e-04 6.66950e-05        0.915        0.046
 11   0.431824604452735 5.41966e-05 2.48063e-05        0.939        0.047
 12   0.431823847184996 6.42412e-05 1.26021e-05        0.973        0.049
 13   0.431824955971682 1.80187e-05 1.15520e-05        1.006        0.050
 14   0.431824467533533 1.12499e-05 8.16571e-06        1.040        0.052
 15   0.431824715510992 3.29622e-06 3.74324e-06        1.085        0.054

EOMEE-CCSD iterations converged in 15 cycles and 0.622 seconds (0.041 s/it.) at 12.232 Gflops/sec

EOMEE-CCSD excitation energy:   0.431824715510999 ( 11.750547895365711 eV)
Total EOMEE-CCSD energy:      -112.712644137701659

Converged root:

   A    I                     A    I                     A    I                  
-------------------------- -------------------------- -------------------------- 
  11    7  0.6299294003273   20    7 -0.0519411967834   25    6  0.0199405105954 
   8    7 -0.1910449600003   12    5  0.0434246109675   20    4  0.0141467805453 
  17    7  0.1231287266952   13    6  0.0434246109671   16    6 -0.0130485258878 
  23    7  0.0675653147033    8    4 -0.0277791435556   15    5 -0.0130485258877 
  14    7 -0.0569288773167   24    5  0.0199405105955   26    7  0.0127151698919 

   A    B    I    J                     A    B    I    J                  
------------------------------------ ------------------------------------ 
  11   11    7    7 -0.0706893883658   11   23    7    7 -0.0360757807711 
  29   11    7    7  0.0431019766286   26   11    7    7 -0.0340725002822 
  11   29    7    7  0.0431019766286   11   26    7    7 -0.0340725002822 
  13   11    6    7  0.0414702232113   24   11    5    7  0.0328417303777 
  11   13    7    6  0.0414702232113   11   24    7    5  0.0328417303777 
  12   11    5    7  0.0414702232113   25   11    6    7  0.0328417303777 
  11   12    7    5  0.0414702232113   11   25    7    6  0.0328417303777 
  23   11    7    7 -0.0360757807711 

EOMEE-CCSD guess vector:

   A    I                  
-------------------------- 
  14    7  1.0000000000000 

Beginning iterative solution of EOMEE-CCSD equations:

It.  Correlation Energy R1 Residual R2 Residual CPU Time (s) Walltime (s)
-------------------------------------------------------------------------
  1   0.629140247805023 1.37802e-01 4.08297e-02        0.612        0.031
  2   0.531007274594412 4.78965e-02 1.11918e-02        0.642        0.032
  3   0.519022557597144 2.59894e-02 3.38925e-03        0.690        0.035
  4   0.515547269894349 1.02929e-02 3.60775e-03        0.718        0.036
  5   0.512190448610304 1.04784e-02 2.95345e-03        0.753        0.038
  6   0.507574854410002 1.14250e-02 3.99007e-03        0.789        0.039
  7   0.503925182002803 1.07949e-02 2.29989e-03        0.828        0.041
  8   0.502774778518825 4.58589e-03 1.98691e-03        0.860        0.043
  9   0.502497649645876 3.19226e-03 1.11135e-03        0.905        0.045
 10   0.502255006267955 1.37720e-03 3.51542e-04        0.932        0.047
Locking on root: 0.502266074115703
 11   0.502266074115703 9.01088e-04 2.57176e-04        0.968        0.048
 12   0.502238988851678 2.71427e-04 1.54574e-04        1.002        0.050
 13   0.502252438521430 2.45781e-04 6.84713e-05        1.039        0.052
 14   0.502242929499063 1.53508e-04 4.65621e-05        1.073        0.054
 15   0.502249094771059 1.07160e-04 3.16373e-05        1.113        0.056
 16   0.502247826314838 6.76306e-05 3.24786e-05        1.149        0.058
 17   0.502250353005345 2.94902e-05 1.87928e-05        1.262        0.063
 18   0.502249527705468 1.15432e-05 9.97506e-06        1.318        0.066
 19   0.502249327635113 1.11753e-05 4.99224e-06        1.255        0.063
Compacting subspace
 20   0.502249181154746 6.35796e-03 1.15972e-04        4.661        0.233
 21   0.502249172032407 5.16423e-06 4.20118e-06        0.976        0.049

EOMEE-CCSD iterations converged in 21 cycles and 1.179 seconds (0.056 s/it.) at 13.584 Gflops/sec

EOMEE-CCSD excitation energy:   0.502249172032407 ( 13.666894782506382 eV)
Total EOMEE-CCSD energy:      -112.642219681180251

Converged root:

   A    I                     A    I                     A    I                  
-------------------------- -------------------------- -------------------------- 
  14    7 -0.3919531269425    8    7 -0.1505013319896   26    7  0.0556424934054 
  10    6  0.2522757991154   17    7 -0.1187947016100   17    4  0.0553257151926 
   9    5  0.2522757991058    8    4 -0.1033776276293   29    7 -0.0484794629844 
  13    6  0.2188709923865   20    7  0.1002809837833   32    4 -0.0362633295821 
  12    5  0.2188709923742   11    7 -0.0854118374078   20    4  0.0360999306646 

   A    B    I    J                     A    B    I    J                  
------------------------------------ ------------------------------------ 
  13   13    6    6 -0.0453089324610   12    9    5    5 -0.0354220823190 
  12   12    5    5 -0.0453089324589    9   12    5    5 -0.0354220823190 
  13   14    6    7 -0.0356429147336   10   10    6    6 -0.0319869062272 
  14   13    7    6 -0.0356429147336    9    9    5    5 -0.0319869062263 
  12   14    5    7 -0.0356429147335   29   14    7    7 -0.0288176896532 
  14   12    7    5 -0.0356429147335   14   29    7    7 -0.0288176896532 
  13   10    6    6 -0.0354220823203   13   12    6    5 -0.0248728863418 
  10   13    6    6 -0.0354220823203 

Searching for 2 roots in irrep 2

EOMEE-CCSD guess vector:

   A    I                  
-------------------------- 
   9    7  1.0000000000000 

Beginning iterative solution of EOMEE-CCSD equations:

It.  Correlation Energy R1 Residual R2 Residual CPU Time (s) Walltime (s)
-------------------------------------------------------------------------
  1   0.495914923350451 3.09268e-02 5.96176e-02        0.557        0.028
  2   0.446522667256306 1.25984e-01 2.47564e-02        0.568        0.028
  3   0.377723258409863 4.92937e-02 1.22384e-02        0.613        0.031
  4   0.337386882582206 4.43851e-02 1.25481e-02        0.643        0.032
  5   0.320217670693915 1.45899e-02 3.44634e-03        0.685        0.034
  6   0.316460062789047 6.69399e-03 1.84540e-03        0.723        0.036
  7   0.315619795789900 2.12780e-03 8.30635e-04        0.761        0.038
Locking on root: 0.315593923707406
  8   0.315593923707406 7.56894e-04 4.33427e-04        0.798        0.040
  9   0.315565577922355 4.36278e-04 1.62320e-04        0.819        0.041
 10   0.315559047459051 1.93268e-04 1.01468e-04        0.858        0.043
 11   0.315561827678581 8.70248e-05 7.90308e-05        0.907        0.045
 12   0.315561957189442 4.57518e-05 4.10979e-05        0.946        0.047
 13   0.315561592623281 1.20556e-05 1.08728e-05        0.982        0.049
 14   0.315561331622503 3.81500e-06 2.96253e-06        1.005        0.050

EOMEE-CCSD iterations converged in 14 cycles and 0.544 seconds (0.039 s/it.) at 11.603 Gflops/sec

EOMEE-CCSD excitation energy:   0.315561331622504 (  8.586860380994509 eV)
Total EOMEE-CCSD energy:      -112.828907521590153

Converged root:

   A    I                     A    I                     A    I                  
-------------------------- -------------------------- -------------------------- 
  12    7  0.5066444072367   21    7  0.0746577290436   21    4  0.0242979947518 
   9    7  0.3858252203783    9    4  0.0422838332673   45    7  0.0228530266433 
  15    7  0.1815330297237   30    7  0.0343451599596   37    7 -0.0187035319012 
  12    4  0.0935216429746   24    4  0.0328157870058   18    6 -0.0168806804303 
  24    7  0.0820703951058   15    4  0.0280565647931   19    5 -0.0168806804303 

   A    B    I    J                     A    B    I    J                  
------------------------------------ ------------------------------------ 
  12   12    5    4 -0.0359106561086    9   29    7    7  0.0252063534228 
  12   12    4    5 -0.0359106561086   29    9    7    7  0.0252063534228 
  12    9    5    7  0.0289303709975   13   12    6    4 -0.0238682742221 
   9   12    7    5  0.0289303709975   12   13    4    6 -0.0238682742221 
  12   12    5    7  0.0281285281184   12    9    5    4 -0.0235740459915 
  12   12    7    5  0.0281285281184    9   12    4    5 -0.0235740459915 
  12   29    7    7  0.0267925613247    9   12    5    7  0.0232944950255 
  29   12    7    7  0.0267925613247 

EOMEE-CCSD guess vector:

   A    I                  
-------------------------- 
  12    7  1.0000000000000 

Beginning iterative solution of EOMEE-CCSD equations:

It.  Correlation Energy R1 Residual R2 Residual CPU Time (s) Walltime (s)
-------------------------------------------------------------------------
  1   0.675233511881983 1.04462e+01 4.47306e-02        0.566        0.028
  2   0.529326975936437 5.24651e-02 3.33930e-02        0.602        0.030
  3   0.448330218267167 2.89057e-02 7.21727e-03        0.640        0.032
  4   0.442310354019372 1.21845e-02 2.40066e-03        0.693        0.035
  5   0.440348020568783 3.53345e-03 1.60688e-03        0.722        0.036
  6   0.439918058876288 3.92669e-03 1.11683e-03        0.747        0.037
  7   0.439704004173204 1.37215e-03 6.03372e-04        0.792        0.040
  8   0.439585173532442 1.60187e-03 4.22367e-04        0.836        0.042
Locking on root: 0.439552940891972
  9   0.439552940891972 9.77905e-04 3.34498e-04        0.876        0.044
 10   0.439518611817289 5.07998e-04 2.75103e-04        0.909        0.045
 11   0.439519986524420 1.71206e-04 1.73267e-04        0.945        0.047
 12   0.439518287251250 1.21969e-04 7.63246e-05        0.986        0.049
 13   0.439518309609730 9.11551e-05 3.24453e-05        1.022        0.051
 14   0.439518927047147 6.57503e-05 1.54188e-05        1.058        0.053
 15   0.439518499440120 3.84906e-05 1.30259e-05        1.126        0.056
 16   0.439518588587583 1.49886e-05 6.65738e-06        1.146        0.057
 17   0.439518457878270 5.79950e-06 3.58273e-06        1.206        0.060

EOMEE-CCSD iterations converged in 17 cycles and 0.745 seconds (0.044 s/it.) at 11.790 Gflops/sec

EOMEE-CCSD excitation energy:   0.439518457878265 ( 11.959905268702212 eV)
Total EOMEE-CCSD energy:      -112.704950395334393

Converged root:

   A    I                     A    I                     A    I                  
-------------------------- -------------------------- -------------------------- 
   9    7 -0.5290693683963   21    7  0.0445122430859   17    5  0.0134408290952 
  12    7  0.3951788113116    8    5 -0.0341563379592   39    7  0.0121380169785 
  24    7  0.1259273167424    9    4  0.0334311965034    9    3  0.0105897987450 
  12    4  0.0714107235025   24    4  0.0144890511362   15    4  0.0100703171036 
  15    7 -0.0541824997046   30    7  0.0142108415759   18    6 -0.0082981242521 

   A    B    I    J                     A    B    I    J                  
------------------------------------ ------------------------------------ 
  13    9    6    7 -0.0469051987626   24    9    5    7 -0.0345585807557 
   9   13    7    6 -0.0469051987626    9   24    7    5 -0.0345585807557 
  12    9    5    7 -0.0434006524241   25    9    6    7 -0.0341630889695 
   9   12    7    5 -0.0434006524241    9   25    7    6 -0.0341630889695 
   9   29    7    7 -0.0409766214240    9   26    7    7  0.0318701901739 
  29    9    7    7 -0.0409766214240   26    9    7    7  0.0318701901739 
   9   11    7    7  0.0361591947482    9   23    7    7  0.0316725318319 
  11    9    7    7  0.0361591947482 

Searching for 2 roots in irrep 4

EOMEE-CCSD guess vector:

   A    I                  
-------------------------- 
   9    6  1.0000000000000 

Beginning iterative solution of EOMEE-CCSD equations:

It.  Correlation Energy R1 Residual R2 Residual CPU Time (s) Walltime (s)
-------------------------------------------------------------------------
  1   0.620462924849484 4.31653e-02 4.62817e-02        0.510        0.026
  2   0.547087266954083 1.45077e-01 2.64958e-02        0.559        0.028
  3   0.460271027817444 6.40556e-02 1.24864e-02        0.598        0.030
  4   0.389558114073082 4.14328e-02 1.05254e-02        0.624        0.031
  5   0.373409300464798 2.12684e-02 3.94927e-03        0.659        0.033
  6   0.369695279706281 3.31006e-03 1.21896e-03        0.705        0.035
  7   0.369278837811518 2.11696e-03 7.01345e-04        0.766        0.038
  8   0.369234289190086 1.86406e-03 5.01412e-04        0.990        0.050
  9   0.369127569883304 2.14958e-03 8.76361e-04        0.780        0.039
 10   0.368747554010007 2.44044e-03 2.43249e-03        0.808        0.040
 11   0.367708234716503 3.25949e-03 2.47766e-03        0.827        0.041
 12   0.367092009205838 1.86462e-03 9.12030e-04        0.891        0.045
 13   0.366997097982539 8.67510e-04 4.58245e-04        0.900        0.045
Locking on root: 0.366983398450179
 14   0.366983398450179 2.75507e-04 1.64233e-04        0.932        0.047
 15   0.366982587115184 1.56294e-04 5.25612e-05        0.981        0.049
 16   0.366980463049246 3.24689e-05 1.45254e-05        0.995        0.050
 17   0.366980397593681 1.67296e-05 5.38391e-06        1.051        0.053
 18   0.366980463149450 4.41029e-06 1.65406e-06        1.064        0.053

EOMEE-CCSD iterations converged in 18 cycles and 0.733 seconds (0.041 s/it.) at 10.290 Gflops/sec

EOMEE-CCSD excitation energy:   0.366980463149446 (  9.986046083069139 eV)
Total EOMEE-CCSD energy:      -112.777488390063212

Converged root:

   A    I                     A    I                     A    I                  
-------------------------- -------------------------- -------------------------- 
  12    6  0.3819458795594   15    6  0.1355501324552   30    6  0.0310627040728 
  13    5 -0.3819448160677   25    5 -0.0788188301152   31    5 -0.0310622264807 
  10    5 -0.2408956165034   24    6  0.0788187227084   46    5 -0.0171770131731 
   9    6  0.2408893431315   22    5 -0.0696948777335   45    6  0.0171770001062 
  16    5 -0.1355568177762   21    6  0.0696948131876   38    5  0.0143996480764 

   A    B    I    J                     A    B    I    J                  
------------------------------------ ------------------------------------ 
  13   12    6    6 -0.0342744568228   16   12    6    6 -0.0206242613676 
  12   13    6    6 -0.0342744568228   12   16    6    6 -0.0206242613676 
  12   12    6    5 -0.0342741490935   13   15    5    5  0.0206238094213 
  12   12    5    6 -0.0342741490935   15   13    5    5  0.0206238094213 
  13   13    6    5  0.0342735070108   10   12    6    6 -0.0203122154590 
  13   13    5    6  0.0342735070108   12   10    6    6 -0.0203122154590 
  13   12    5    5  0.0342731992815   13    9    5    5  0.0203118438497 
  12   13    5    5  0.0342731992815 

EOMEE-CCSD guess vector:

   A    I                  
-------------------------- 
  10    5  1.0000000000000 

Beginning iterative solution of EOMEE-CCSD equations:

It.  Correlation Energy R1 Residual R2 Residual CPU Time (s) Walltime (s)
-------------------------------------------------------------------------
  1   0.652774604713091 1.52600e-01 4.38133e-02        0.544        0.027
  2   0.501278777065677 7.76305e-02 9.49846e-03        0.577        0.029
  3   0.433194275533876 7.32185e-02 9.19081e-03        0.610        0.031
  4   0.384280327891242 2.45638e-02 7.92322e-03        0.637        0.032
  5   0.373982054855693 1.07679e-02 2.39967e-03        0.668        0.033
  6   0.372247312628301 5.02064e-03 9.77637e-04        0.706        0.035
  7   0.372069629949147 1.10593e-03 6.24581e-04        0.749        0.037
Locking on root: 0.372032878533994
  8   0.372032878533994 6.77995e-04 1.77861e-04        0.785        0.039
  9   0.372024889781334 1.56353e-04 5.50478e-05        0.817        0.041
 10   0.372023831943020 7.29025e-05 2.91583e-05        0.834        0.042
 11   0.372025955142787 2.63316e-05 1.37770e-05        0.862        0.043
 12   0.372025831604587 5.69448e-06 6.55269e-06        0.894        0.045

EOMEE-CCSD iterations converged in 12 cycles and 0.435 seconds (0.036 s/it.) at 10.453 Gflops/sec

EOMEE-CCSD excitation energy:   0.372025831604589 ( 10.123337538496296 eV)
Total EOMEE-CCSD energy:      -112.772443021608069

Converged root:

   A    I                     A    I                     A    I                  
-------------------------- -------------------------- -------------------------- 
  12    6  0.3802819653587   16    5  0.1276820758762   30    6  0.0272396530186 
  13    5  0.3802781994375   24    6  0.0771709697039   31    5  0.0272304717269 
   9    6  0.2391288460985   25    5  0.0771615276666   45    6  0.0136649934434 
  10    5  0.2391027038321   21    6  0.0631992228933   46    5  0.0136610677331 
  15    6  0.1277070351641   22    5  0.0631840940989   33    7  0.0098325948919 

   A    B    I    J                     A    B    I    J                  
------------------------------------ ------------------------------------ 
  13   12    7    7  0.0464795206146   12   12    6    5 -0.0401464122111 
  12   13    7    7  0.0464795206146   12   12    5    6 -0.0401464122111 
  13   12    5    5 -0.0420843710050   10   12    7    7  0.0256732573532 
  12   13    5    5 -0.0420843710050   12   10    7    7  0.0256732573532 
  13   12    6    6 -0.0420836453714   13    9    7    7  0.0256718779848 
  12   13    6    6 -0.0420836453714    9   13    7    7  0.0256718779848 
  13   13    6    5 -0.0401471378446   13    9    5    5 -0.0254778169830 
  13   13    5    6 -0.0401471378446 

 @CHECKOUT-I, Total execution time (CPU/WALL):      122.13/       6.45 seconds.
--executable xncc finished with status     0 in        7.01 seconds (walltime).
  The final electronic energy is      -112.772443021608069 a.u. 
  This computation required                           15.17 seconds (walltime).
