 --invoking executable--
/home/CEISAM/blondel-a/soft/cfour2.1/cfour2.1-serial-mkl/bin/xjoda


   *************************************************************************
         <<<     CCCCCC     CCCCCC   |||     CCCCCC     CCCCCC   >>>
       <<<      CCC        CCC       |||    CCC        CCC         >>>
      <<<      CCC        CCC        |||   CCC        CCC            >>>
    <<<        CCC        CCC        |||   CCC        CCC              >>>
      <<<      CCC        CCC        |||   CCC        CCC            >>>
       <<<      CCC        CCC       |||    CCC        CCC         >>>
         <<<     CCCCCC     CCCCCC   |||     CCCCCC     CCCCCC   >>>
   *************************************************************************

     ****************************************************************
     * CFOUR Coupled-Cluster techniques for Computational Chemistry *
     ****************************************************************
 

   Department of Chemistry                Institut fuer Physikalische Chemie
   University of Florida                  Universitaet Mainz
   Gainesville, FL 32611, USA             D-55099 Mainz, Germany

   Department of Chemistry                Fakultaet fuer Chemie und Biowiss.
   Johns Hopkins University               Karlsruher Institut fuer Technologie
   Baltimore, MD 21218, USA               D-76131 Karlsruhe, Germany

   Department of Chemistry                Department of Physical Chemistry
   Southern Methodist University          Eotvos Lorand University
   Dallas, TX 75275, USA                  H-1053 Budapest, Hungary

 
                       Version 2.1
 
                     nazare097                                         
                     Thu Mar 18 20:48:41 CET 2021                      
                     integer*8 version is running
 
********************************************************************************
*                          Input from ZMAT file                                *
********************************************************************************
Ketene -GS                                                                      
O    0.0000000000            0.0000000000           -0.1320966888               
H    0.0000000000            1.4315287786            0.9797000618               
H    0.0000000000           -1.4315287786            0.9797000618               
                                                                                
*CFOUR(COORD=CARTESIAN,UNITS=BOHR                                               
       MEMORY=100,MEM_UNIT=GB,CC_PROG=NCC                                       
       FROZEN_CORE=1                                                            
       CALC=CCSD,BASIS=AUG-PVTZ                                                 
       SCF_CONV=8,CC_CONV=7,ESTATE_CONV=5,ESTATE_MAXCYC=120                     
       EXCITE=EOMEE,ESTATE_SYM=1/1/1/1)                                         
                                                                                
********************************************************************************
    -------------------------------------------------------------------
                    CFOUR Control Parameters 
    -------------------------------------------------------------------
        External           Internal           Value            Units
          Name               Name
    -------------------------------------------------------------------
       ABCDTYPE             IABCDT         STANDARD    [  0]    ***   
       ANHARMONIC           IANHAR         OFF         [  0]    ***   
       ANH_ALGORIT          IANALG         STANDARD    [  0]    ***   
       ANH_DERIVAT          IANDER         SECOND      [  1]    ***   
       ANH_MODE             ANHMOD         VIBRATION   [  0]    ***   
       ANH_STEPSIZ          ICUBST             50000          x 10-6  
       ANH_SYMMETR          IANHSM         ABELIAN     [  0]    ***   
       AO_LADDERS           IAOLAD         SINGLEPASS  [  1]    ***   
       AV_SCF               IAVSCF         OFF         [  0]    ***   
       BASIS                IBASIS         AUG-PVTZ    [ 34]    ***   
       BOTHVECTORS          BOTHVC         OFF         [  0]    ***   
       BOX_POTENT           IPIAB          OFF         [  0]    ***   
       BREIT                IBREIT         OFF         [  0]    ***   
       BRUCK_CONV           IBRTOL          10D-  4             ***   
       BRUECKNER            IBRKNR         OFF         [  0]    ***   
       BUFFERSIZE           IBUFFS              4096            ***   
       CACHE_RECS           ICHREC             10               ***   
       CALCLEVEL            ICLLVL         CCSD        [ 10]    ***   
       CCORBOPT             ICCORB         OFF         [  0]  x 0.01  
       CC_CONV              ICCCNV          10D-  7             ***   
       CC_EXPORDER          ICCEOR              5               ***   
       CC_EXTRAPOL          ICCEXT         DIIS        [  1]    ***   
       CC_GUESS             ICCGES         MP2         [  0]    ***   
       CC_MAXCYC            ICCCYC            100              cycles 
       CC_PROGRAM           ICCPRO         NCC         [  5]    ***   
       CHARGE               ICHRGE              0               ***   
       CHOLESKY             ICHOLE         OFF         [  0]    ***   
       CIS_CONV             ICISTL              5               ***   
       COMM_SIZE            IPSIZE            ***               ***   
       CONSTANT             ICONST         OLD         [  1]    ***   
       CONTINUUM            ICONTU         NONE        [  0]    ***   
       CONTRACTION          ICNTYP         GENERAL     [  1]    ***   
       COORDINATES          ICOORD         CARTESIAN   [  1]    ***   
       CPHF_CONVER          ICPHFT          10D- 16             ***   
       CPHF_MAXCYC          ICPHFC             64              cycles 
       CUBIC                ICUBIC         OFF         [  0]    ***   
       CURVILINEAR          ICURVY         OFF         [  0]    ***   
       DBOC                 IDBOC          OFF         [  0]    ***   
       DCT                  IDCT           OFF         [  0]    ***   
       DERIV_LEV            IDRLVL         ZERO        [  0]    ***   
       DEVMEM_SIZE          IDVMEM         *********           MByte  
       DIAG_MRCC            IEOMST          10D-  0             ***   
       DIFF_TYPE            IDIFTY         RELAXED     [  0]    ***   
       DIRECT               IDIRCT         OFF         [  0]    ***   
       DROPMO               IDRPMO      NONE         
       ECP                  IECP           OFF         [  0]    ***   
       EIGENVECTOR          IVEC                1               ***   
       EL_ANHARM            IELANH         OFF         [  0]    ***   
       EOMFOLLOW            IEOMSR         ENERGY      [  0]    ***   
       EOMIP                IEOMIP         OFF         [  0]    ***   
       EOMLEVEL             HBARFM         SAME        [  0]    ***   
       EOM_MRCC             IMRCCE         NEW         [  1]    ***   
       EOM_NONIT            EOMNON         OFF         [  0]    ***   
       EOM_NSING            IEOMSI          10D-  0             ***   
       EOM_NSTATES          IMRCCD         DAVIDSON    [  0]    ***   
       EOM_NTRIP            IEOMTR          10D-  0             ***   
       EOM_ORDER            IEXORD         ENERGY      [  0]    ***   
       EOM_PROPSTA          IEOMST              0               ***   
       ESTATE_CONV          IEXTOL          10D-  5             ***   
       ESTATE_DIAG          IEXDIG         ITERATIVE   [  0]    ***   
       ESTATE_LOCK          IESLOC         ON          [  1]    ***   
       ESTATE_MAXC          IEXMXC            120               ***   
       ESTATE_PROP          IEXPRP         OFF         [  0]    ***   
       ESTATE_SYM           IEXSYM   1,  1,  1,  1,
       EVAL_HESS            IRECAL              0            # of cyc.
       EXCITATION           IEXCIT              0               ***   
       EXCITE               IEXCIT         EOMEE       [  3]    ***   
       EXTERN_POT           IEXPOT         OFF         [  0]    ***   
       FCGRADNEW            IFCGNW         OFF         [  0]    ***   
       FC_FIELD             IFINFC              0             x 10-6  
       FD_CALTYPE           IFDCAL         GRADONLY    [  0]    ***   
       FD_PROJECT           IFDPRJ         OFF         [  1]    ***   
       FD_STEPSIZE          IDISFD              0            10-4 bohr
       FD_USEGROUP          IFDGRP         FULL        [  0]    ***   
       FILE_RECSIZ          IFLREC              4096           words  
       FINITE_PERT          IFIPER              0             x 10-6  
       FIXGEOM              IFIXGM         OFF         [  0]    ***   
       FOCK                 IFOCK          AO          [  1]    ***   
       FREQ_ALGORI          IVIALG         STANDARD    [  0]    ***   
       FROZEN_CORE          IFROCO         ON          [  1]    ***   
       GAMMA_ABCD           IGABCD         STORE       [  0]    ***   
       GAMMA_ABCI           IGABCI         STORE       [  0]    ***   
       GENBAS_1             IGNBS1              0               ***   
       GENBAS_2             IGNBS2              0               ***   
       GENBAS_3             IGNBS3              0               ***   
       GENBAS_4             IGNBS4              0               ***   
       GEO_CONV             ICONTL              5              H/bohr 
       GEO_MAXCYC           IOPTCY             50               ***   
       GEO_MAXSTEP          IMXSTP            300            millibohr
       GEO_METHOD           INR            SINGLE_POINT[  5]    ***   
       GIAO                 IGIAO          OFF         [  1]    ***   
       GIMIC                IGIMIC         OFF         [  0]    ***   
       GRID                 IGRID          OFF         [  0]    ***   
       GRID_ALGO            IGALGO         SERIAL      [  0]    ***   
       GUESS                IGUESS         MOREAD      [  0]    ***   
       HBAR                 IHBAR          ON          [  1]    ***   
       HESS_TYPE            IHESTP         SCF         [  0]    ***   
       HF2_FILE             IHF2Fl         USE         [  1]    ***   
       HFSTABILITY          ISTABL         OFF         [  0]    ***   
       INCORE               INCORE         OFF         [  0]    ***   
       INPUT_MRCC           IMRCC          ON          [  1]    ***   
       INTEGRALS            INTTYP         VMOL        [  1]    ***   
       JODA_PRINT           IJPRNT              0               ***   
       KEYWORD_OUT          IDMPKW         NO          [  0]    ***   
       LINDEP_TOL           ILINDP              8               ***   
       LINEQ_CONV           IZTACN          10D-  7           cycles  
       LINEQ_EXPOR          ILMAXD              5               ***   
       LINEQ_MAXCY          ILMAXC            100               ***   
       LINEQ_TYPE           ILTYPE         DIIS        [  1]    ***   
       LOCK_ORBOCC          ILOCOC         OFF         [  0]    ***   
       MEMORY_SIZE          IMEMSZ         *********           words  
       MEM_UNIT             IMEMU          GB          [  3]    ***   
       MRCC                 IMRCCC         OFF         [  0]    ***   
       MULTIPLICTY          IMULTP              1               ***   
       NACOUPLING           IVCOUP         OFF         [  0]    ***   
       NEGEVAL              IDIE           ABORT       [  0]    ***   
       NEWNORM              INEWNO         OFF         [  0]    ***   
       NON-HF               INONHF         OFF         [  0]    ***   
       NTOP_TAMP            ITOPT2             15               ***   
       NUC_MODEL            INUCMO         POINT       [  0]    ***   
       OCCUPATION           IOCCU   ESTIMATED BY SCF 
       OPEN-SHELL           IOPEN          SPIN-ORBITAL[  0]    ***   
       OPTVIB               IOPTVB         OFF         [  0]    ***   
       ORBITALS             IORBTP         STANDARD    [  0]    ***   
       PARALLEL             IPARAL         ON          [  1]    ***   
       PARA_INT             IPINTS         ON          [  1]    ***   
       PARA_PRINT           IPPRIN              0               ***   
       PERT_ORB             IPTORB         STANDARD    [  0]    ***   
       POINTS               IGRDFD              0               ***   
       PRINT                IPRNT               0               ***   
       PROPS                IPROPS         OFF         [  0]    ***   
       PROP_INTEGR          IINTYP         INTERNAL    [  0]    ***   
       PSI                  IPSI           OFF         [  0]    ***   
       QC_ALG               IQCALG         FLM         [  0]    ***   
       QC_LINALG            IQCLIN         TRIDIAG     [  2]    ***   
       QC_MAXCYC            IQCMAX          10D-100           cycles  
       QC_MAXSCFCY          IQCMSC          10D- 15           cycles  
       QC_RTRUST            IQCRTR          10D-  0           x 10-3  
       QC_SKIPSCF           IQCSKI         OFF         [  0]    ***   
       QC_START             IQCSTA          10D-  1             ***   
       QRHFGUESS            IQGUES         OFF         [  0]    ***   
       QUARTIC              IQUART         OFF         [  0]    ***   
       RAMAN_INT            IRAMIN         OFF         [  0]    ***   
       RAMAN_ORB            IRAMRE         UNRELAXED   [  0]    ***   
       RDO                  IRDOFM         OFF         [  0]    ***   
       REDUCE_REPR          REDREP         Ir          [  0]    ***   
       REFERENCE            IREFNC         RHF         [  0]    ***   
       RELATIVIST           IRELAT         OFF         [  0]    ***   
       RELAX_DENS           IRDENS         OFF         [  0]    ***   
       RESET_FLAGS          IRESET         OFF         [  0]    ***   
       RESTART_CC           ICCRES         OFF         [  0]    ***   
       ROT_EVEC             ROTVEC              0               ***   
       SAVE_INTS            ISVINT         OFF         [  0]    ***   
       SCALE_ON             ISTCRT              0               ***   
       SCF_CONV             ISCFCV          10D-  8             ***   
       SCF_DAMPING          IDAMP               0             x 10-3  
       SCF_EXPORDE          IRPPOR              6               ***   
       SCF_EXPSTAR          IRPPLS              8               ***   
       SCF_EXTRAPO          IRPP           ON          [  1]    ***   
       SCF_MAXCYC           ISCFCY            150              cycles 
       SCF_NOSTOP           ISCFST         OFF         [  0]    ***   
       SCF_PRINT            ISCFPR              0               ***   
       SCF_PROG             ISCFPR         SCF         [  0]    ***   
       SD_FIELD             IFINSD              0             x 10-6  
       SOPERT               IPERSO         OFF         [  0]    ***   
       SPHERICAL            IDFGHI         ON          [  1]    ***   
       SPINORBIT            ISOCAL         OFF         [  0]    ***   
       SPINROTATIO          ISRCON         OFF         [  0]    ***   
       SPIN_FLIP            ISPFLP         OFF         [  0]    ***   
       SPIN_ORBIT           ISPORB         OFF         [  0]    ***   
       SPIN_SCAL            ISCSMP         OFF         [  0]    ***   
       STEEPSCALE           ISTPSC              1000          x 10-3  
       SUBGROUP             ISUBGP         DEFAULT     [  0]    ***   
       SUBGRPAXIS           ISBXYZ         X           [  0]    ***   
       SYMMETRY             ISYM           ON          [  0]    ***   
       SYM_CHECK            ISYMCK         OVERRIDE    [  1]    ***   
       T3_EXTRAPOL          IT3EXT         OFF         [  0]    ***   
       T4_EXTRAPOL          IT4EXP         OFF         [  0]    ***   
       TAMP_SUM             IEVERY              5               ***   
       TESTSUITE            ITESTS         OFF         [  0]    ***   
       THERMOCH             ITHERM         OFF         [  0]    ***   
       TOL_CHOLESK          ITOLCH          10D-  4             ***   
       TRANGRAD             IRESRM         OFF         [  0]    ***   
       TRANS_INV            ITRAIN         USE         [  0]    ***   
       TREAT_PERT           ITREAT         SIMULTANEOUS[  0]    ***   
       TRIP_ALGORI          ITRALG         NORMAL      [  0]    ***   
       UIJ_THRESHO          IUIJTH              1               ***   
       UNITS                IUNITS         BOHR        [  1]    ***   
       UNOS                 IUNOS          OFF         [  0]    ***   
       UPDATE_HESS          IHUPDT         ON          [  1]    ***   
       VIBPHASE             ISETPH         STANDARD    [  0]    ***   
       VIBRATION            IVIB           NO          [  0]    ***   
       VIB_ALGORIT          IGEALG         STANDARD    [  0]    ***   
       VNATORB              IVNORB         OFF         [  0]    ***   
       VTRAN                IVTRAN         FULL/PARTIAL[  0]    ***   
       XFIELD               IXEFLD              0             x 10-6  
       XFORM_TOL            IXFTOL          10D- 11             ***   
       YFIELD               IYEFLD              0             x 10-6  
       ZFIELD               IZEFLD              0             x 10-6  
       ZSCALE_EXP           IZEXPS         OFF         [  0]    ***   
    -------------------------------------------------------------------
  @GETXYZ-I,     3 atoms read from ZMAT.
   Rotational constants (in cm-1): 
          9.4902686961            14.5740134783            27.2065789719
   Rotational constants (in MHz): 
     284511.1378075283        436917.9935688575        815632.8326432100
********************************************************************************
   The full molecular point group is C2v .
   The largest Abelian subgroup of the full molecular point group is C2v .
   The computational point group is C2v .
********************************************************************************


 ----------------------------------------------------------------
         Coordinates used in calculation (QCOMP) 
 ----------------------------------------------------------------
 Z-matrix   Atomic            Coordinates (in bohr)
  Symbol    Number           X              Y              Z
 ----------------------------------------------------------------
     O         8         0.00000000     0.00000000    -0.12442659
     H         1         0.00000000     1.43152878     0.98737016
     H         1         0.00000000    -1.43152878     0.98737016
 ----------------------------------------------------------------
 
   Interatomic distance matrix (Angstroms) 
 
                 O             H             H    
                [ 1]        [ 2]        [ 3]
  O    [ 1]     0.00000
  H    [ 2]     0.95916     0.00000
  H    [ 3]     0.95916     1.51506     0.00000
 rotcon2
   Rotational constants (in cm-1): 
          9.4902686961            27.2065789719            14.5740134783
   Rotational constants (in MHz): 
     284511.1378075283        815632.8326432100        436917.9935688575
  There is   1 frozen-core orbital.
  There are   92 basis functions.
 @GEOPT-W, Archive file not created for single-point calculation.
 @CHECKOUT-I, Total execution time (CPU/WALL):        0.15/       1.34 seconds.
--executable xjoda finished with status     0 in        1.84 seconds (walltime).
 --invoking executable--
/home/CEISAM/blondel-a/soft/cfour2.1/cfour2.1-serial-mkl/bin/xvmol
 SERIAL VERSION OF MOLECULE STARTED
********************************************************************************
                    INPUT FROM MOL FILE
********************************************************************************
INTGRL        1    0    1    0    0    0    0    0    0                         
         *** CFOUR Program System (Release V0.1) ***                            
Ketene -GS                                                                      
    2    2 X  Y       0.10E-08              0    0                              
   9999.00      3.00                                                            
          8.00000000    1    4    1    1    1    1                              
O #1   0.000000000000000   0.000000000000000  -0.124426592697155                
   11    5                                                                      
   15330.0000000000       5.080000000000000E-004 -1.150000000000000E-004        
  0.000000000000000E+000  0.000000000000000E+000  0.000000000000000E+000        
   2299.00000000000       3.929000000000000E-003 -8.950000000000000E-004        
  0.000000000000000E+000  0.000000000000000E+000  0.000000000000000E+000        
   522.400000000000       2.024300000000000E-002 -4.636000000000000E-003        
  0.000000000000000E+000  0.000000000000000E+000  0.000000000000000E+000        
   147.300000000000       7.918100000000000E-002 -1.872400000000000E-002        
  0.000000000000000E+000  0.000000000000000E+000  0.000000000000000E+000        
   47.5500000000000       0.230687000000000      -5.846300000000000E-002        
  0.000000000000000E+000  0.000000000000000E+000  0.000000000000000E+000        
   16.7600000000000       0.433118000000000      -0.136463000000000             
  0.000000000000000E+000  0.000000000000000E+000  0.000000000000000E+000        
   6.20700000000000       0.350260000000000      -0.175740000000000             
  0.000000000000000E+000  0.000000000000000E+000  0.000000000000000E+000        
   1.75200000000000       4.272800000000000E-002  0.160934000000000             
   1.00000000000000       0.000000000000000E+000  0.000000000000000E+000        
  0.688200000000000      -8.154000000000000E-003  0.603418000000000             
  0.000000000000000E+000  0.000000000000000E+000  0.000000000000000E+000        
  0.238400000000000       2.381000000000000E-003  0.378765000000000             
  0.000000000000000E+000   1.00000000000000       0.000000000000000E+000        
  7.376000000000001E-002  0.000000000000000E+000  0.000000000000000E+000        
  0.000000000000000E+000  0.000000000000000E+000   1.00000000000000             
    6    4                                                                      
   34.4600000000000       1.592800000000000E-002  0.000000000000000E+000        
  0.000000000000000E+000  0.000000000000000E+000                                
   7.74900000000000       9.974000000000000E-002  0.000000000000000E+000        
  0.000000000000000E+000  0.000000000000000E+000                                
   2.28000000000000       0.310492000000000       0.000000000000000E+000        
  0.000000000000000E+000  0.000000000000000E+000                                
  0.715600000000000       0.491026000000000        1.00000000000000             
  0.000000000000000E+000  0.000000000000000E+000                                
  0.214000000000000       0.336337000000000       0.000000000000000E+000        
   1.00000000000000       0.000000000000000E+000                                
  5.974000000000000E-002  0.000000000000000E+000  0.000000000000000E+000        
  0.000000000000000E+000   1.00000000000000                                     
    3    3                                                                      
   2.31400000000000        1.00000000000000       0.000000000000000E+000        
  0.000000000000000E+000                                                        
  0.645000000000000       0.000000000000000E+000   1.00000000000000             
  0.000000000000000E+000                                                        
  0.214000000000000       0.000000000000000E+000  0.000000000000000E+000        
   1.00000000000000                                                             
    2    2                                                                      
   1.42800000000000        1.00000000000000       0.000000000000000E+000        
  0.500000000000000       0.000000000000000E+000   1.00000000000000             
          1.00000000    1    3    1    1    1                                   
H #2   0.000000000000000   1.431528778600000   0.987370157902845                
    6    4                                                                      
   33.8700000000000       6.068000000000000E-003  0.000000000000000E+000        
  0.000000000000000E+000  0.000000000000000E+000                                
   5.09500000000000       4.530800000000000E-002  0.000000000000000E+000        
  0.000000000000000E+000  0.000000000000000E+000                                
   1.15900000000000       0.202822000000000       0.000000000000000E+000        
  0.000000000000000E+000  0.000000000000000E+000                                
  0.325800000000000       0.503903000000000        1.00000000000000             
  0.000000000000000E+000  0.000000000000000E+000                                
  0.102700000000000       0.383421000000000       0.000000000000000E+000        
   1.00000000000000       0.000000000000000E+000                                
  2.526000000000000E-002  0.000000000000000E+000  0.000000000000000E+000        
  0.000000000000000E+000   1.00000000000000                                     
    3    3                                                                      
   1.40700000000000        1.00000000000000       0.000000000000000E+000        
  0.000000000000000E+000                                                        
  0.388000000000000       0.000000000000000E+000   1.00000000000000             
  0.000000000000000E+000                                                        
  0.102000000000000       0.000000000000000E+000  0.000000000000000E+000        
   1.00000000000000                                                             
    2    2                                                                      
   1.05700000000000        1.00000000000000       0.000000000000000E+000        
  0.247000000000000       0.000000000000000E+000   1.00000000000000             
FINISH                                                                          
 
********************************************************************************
 ONE- AND TWO-ELECTRON INTEGRALS OVER SYMMETRY-ADAPTED AOS ARE CALCULATED.

  SPHERICAL HARMONICS ARE USED.
  
  INTEGRALS LESS THAN  0.10E-13 ARE NEGLECTED.

  NUCLEAR REPULSION ENERGY :    9.1765804707 A.U.
  @MOLECU-I, ONE ELECTRON INTEGRALS (CPU/WALL):        0.03/       0.04 SECONDS.
  @TWOEL-I,     262933 INTEGRALS OF SYMMETRY TYPE  I I I I
  @TWOEL-I,     865293 INTEGRALS OF SYMMETRY TYPE  I J I J
  @TWOEL-I,     466389 INTEGRALS OF SYMMETRY TYPE  I I J J
  @TWOEL-I,     575256 INTEGRALS OF SYMMETRY TYPE  I J K L
  @TWOEL-I, TOTAL NUMBER OF 2-E INTEGRALS    2169871.
  @MOLECU-I, TWO ELECTRON INTEGRALS (CPU/WALL):       13.83/       0.90 SECONDS.
 @CHECKOUT-I, Total execution time (CPU/WALL):       13.87/       0.95 seconds.

Running with 20 threads/proc

--executable xvmol finished with status     0 in        1.45 seconds (walltime).
 --invoking executable--
/home/CEISAM/blondel-a/soft/cfour2.1/cfour2.1-serial-mkl/bin/xvmol2ja
 @GETMEM-I,  Allocated   95367 MB of main memory.
 @CHECKOUT-I, Total execution time (CPU/WALL):        0.09/       0.03 seconds.
--executable xvmol2ja finished with status     0 in        0.52 seconds (walltime).
 --invoking executable--
/home/CEISAM/blondel-a/soft/cfour2.1/cfour2.1-serial-mkl/bin/xvscf
  There are   92 functions in the AO basis.

  There are 4 irreducible representations.

       Irrep        # of functions
         1                 35
         2                 18
         3                 27
         4                 12


  Parameters for SCF calculation: 
        SCF reference function:  RHF  
  Maximum number of iterations:  150
     Full symmetry point group: C2v 
     Computational point group: C2v 
        Initial density matrix: MOREAD                 
     SCF convergence tolerance: 10**(- 8)
  DIIS convergence acceleration:  ON
          Latest start for DIIS:   8
                     DIIS order:   6

  Memory information:     401180 words required.
  Fock matrices are constructed from AO integral file.
 @GETMEM-I,  Allocated       3 MB of main memory.
  Initialization and symmetry analysis required      0.002 seconds.

  @INITGES-I, Occupancies from core Hamiltonian:

          Alpha population by irrep:   3    1    1    0
           Beta population by irrep:   3    1    1    0


 total no. of electrons in initial guess :  0.000000000000000E+000
  --------------------------------------------------------------------
  Iteration         Total Energy            Largest Density Difference
  --------------------------------------------------------------------
       0             9.176580470691922              0.0000000000D+00
   current occupation vector 
     3  1  1  0
     3  1  1  0
       1           -61.321567078150203              0.1227179809D+02
   current occupation vector 
     3  1  1  0
     3  1  1  0
       2           -63.703478878135975              0.3388566478D+02
   current occupation vector 
     3  0  2  0
     3  0  2  0
       3           -70.945556070473501              0.3388588512D+02
   current occupation vector 
     3  1  1  0
     3  1  1  0
       4           -67.933049998591741              0.2854019866D+02
   current occupation vector 
     3  0  2  0
     3  0  2  0
       5           -72.333304653155352              0.2853969670D+02
   current occupation vector 
     3  1  1  0
     3  1  1  0
       6           -68.914822887957683              0.2669815982D+02
   current occupation vector 
     3  0  2  0
     3  0  2  0
       7           -72.705100216541666              0.2669837475D+02
   current occupation vector 
     3  1  1  0
     3  1  1  0
       8           -69.176648139040907              0.2626250513D+02
   current occupation vector 
     3  0  2  0
     3  0  2  0
       9           -75.826173496345731              0.2626348917D+02
   current occupation vector 
     3  1  1  0
     3  1  1  0
      10           -76.053721517722494              0.4680654876D+00
   current occupation vector 
     3  1  1  0
     3  1  1  0
      11           -76.060347202365747              0.6705681645D-01
   current occupation vector 
     3  1  1  0
     3  1  1  0
      12           -76.060455386100358              0.9994385579D-02
   current occupation vector 
     3  1  1  0
     3  1  1  0
      13           -76.060464827474803              0.3927110200D-02
   current occupation vector 
     3  1  1  0
     3  1  1  0
      14           -76.060466315634898              0.2205535115D-02
   current occupation vector 
     3  1  1  0
     3  1  1  0
      15           -76.060466331815263              0.2628798232D-03
   current occupation vector 
     3  1  1  0
     3  1  1  0
      16           -76.060466332028042              0.1420125045D-04
   current occupation vector 
     3  1  1  0
     3  1  1  0
      17           -76.060466332048406              0.7657480395D-05
   current occupation vector 
     3  1  1  0
     3  1  1  0
      18           -76.060466332048961              0.1820066341D-05
   current occupation vector 
     3  1  1  0
     3  1  1  0
      19           -76.060466332049373              0.3147257917D-06
   current occupation vector 
     3  1  1  0
     3  1  1  0
      20           -76.060466332048833              0.2340313324D-07
   current occupation vector 
     3  1  1  0
     3  1  1  0

  SCF has converged.

 Density matrix saved to file den.dat
 total electron number:   9.99999999999998     
     E(SCF)=       -76.060466332049629              0.4713601509D-08

  Eigenvector printing suppressed.

 @PUTMOS-I, Writing converged MOs to NEWMOS. 
 @PUTMOS-I, Symmetry   1 Full Blocks  8 Partial Blocksize   3
 @PUTMOS-I, Symmetry   2 Full Blocks  4 Partial Blocksize   2
 @PUTMOS-I, Symmetry   3 Full Blocks  6 Partial Blocksize   3
 @PUTMOS-I, Symmetry   4 Full Blocks  3 Partial Blocksize   0
 @PUTFOCK-I, Writing converged Fock matrix to NEWFOCK. 
 @PUTFOCK-I, Symmetry   1 Full Blocks  8 Partial Blocksize   3
 @PUTFOCK-I, Symmetry   2 Full Blocks  4 Partial Blocksize   2
 @PUTFOCK-I, Symmetry   3 Full Blocks  6 Partial Blocksize   3
 @PUTFOCK-I, Symmetry   4 Full Blocks  3 Partial Blocksize   0


 
  ORBITAL EIGENVALUES (ALPHA)  (1H = 27.2113834 eV)

       MO #        E(hartree)               E(eV)           FULLSYM    COMPSYM
       ----   --------------------   --------------------   -------   ---------
    1     1         -20.5676125085        -559.6731895916      A1        A1 (1)
    2     2          -1.3527399854         -36.8099263838      A1        A1 (1)
    3    54          -0.7164334547         -19.4951454167      B2        B2 (3)
    4     3          -0.5849370113         -15.9169452806      A1        A1 (1)
    5    36          -0.5102575293         -13.8848132617      B1        B1 (2)
  +++++++++++++++++++++++++++++++++++++++++++++++++++++++++++++++++++++++++++++
    6     4           0.0294082370           0.8002388111      A1        A1 (1)
    7    55           0.0476882064           1.2976620680      B2        B2 (3)
    8     5           0.1359281134           3.6987920099      A1        A1 (1)
    9    37           0.1586372239           4.3167383215      B1        B1 (2)
   10     6           0.1751861540           4.7670576030      A1        A1 (1)
   11    56           0.1830229305           4.9803071324      B2        B2 (3)
   12    57           0.2273956426           6.1877500151      B2        B2 (3)
   13     7           0.2449923924           6.6665819188      A1        A1 (1)
   14    81           0.2653260400           7.2198886008      A2        A2 (4)
   15    38           0.3003415504           8.1727090799      B1        B1 (2)
   16     8           0.3103486177           8.4450152242      A1        A1 (1)
   17    58           0.3658266327           9.9546487591      B2        B2 (3)
   18     9           0.4377884286          11.9128287798      A1        A1 (1)
   19    59           0.4664504196          12.6927612039      B2        B2 (3)
   20    60           0.5994562026          16.3120325608      B2        B2 (3)
   21    10           0.6584606771          17.9176259375      A1        A1 (1)
   22    11           0.7082091150          19.2713497545      A1        A1 (1)
   23    82           0.7224386780          19.6585558500      A2        A2 (4)
   24    39           0.7315957081          19.9077313068      B1        B1 (2)
   25    12           0.8310077736          22.6128711360      A1        A1 (1)
   26    40           0.8463600883          23.0306288584      B1        B1 (2)
   27    13           0.8916943287          24.2642362547      A1        A1 (1)
   28    61           0.9129301678          24.8420928136      B2        B2 (3)
   29    41           0.9183006186          24.9882302093      B1        B1 (2)
   30    83           0.9225173463          25.1029732023      A2        A2 (4)
   31    62           0.9308211839          25.3289321113      B2        B2 (3)
   32    14           0.9620330599          26.1782504370      A1        A1 (1)
   33    15           1.0217717909          27.8038239507      A1        A1 (1)
   34    63           1.0438971096          28.4058844803      B2        B2 (3)
   35    42           1.0828860963          29.4668287451      B1        B1 (2)
   36    64           1.1090787335          30.1795666380      B2        B2 (3)
   37    84           1.1764651281          32.0132436575      A2        A2 (4)
   38    16           1.1822083013          32.1695233444      A1        A1 (1)
   39    65           1.2601740692          34.2910797482      B2        B2 (3)
   40    85           1.5108806124          41.1131516154      A2        A2 (4)
   41    17           1.5362443663          41.8033344482      A1        A1 (1)
   42    43           1.5844218215          43.1143096511      B1        B1 (2)
   43    18           1.8038846134          49.0861958257      A1        A1 (1)
   44    66           1.8202169822          49.5306221745      B2        B2 (3)
   45    67           1.9872776647          54.0765744570      B2        B2 (3)
   46    19           2.1189047879          57.6583305723      A1        A1 (1)
   47    44           2.2626988830          61.5711668248      B1        B1 (2)
   48    86           2.3162322744          63.0278844615      A2        A2 (4)
   49    20           2.3260306897          63.2945128967      A1        A1 (1)
   50    21           2.4185797695          65.8129013920      A1        A1 (1)
   51    45           2.4206617744          65.8695556249      B1        B1 (2)
   52    68           2.4427504911          66.4706201642      B2        B2 (3)
   53    22           2.4790947805          67.4595985582      A1        A1 (1)
   54    69           2.6763116647          72.8261428068      B2        B2 (3)
   55    46           2.6976845994          73.4077299278      B1        B1 (2)
   56    23           2.7723483654          75.4394342895      A1        A1 (1)
   57    70           2.8178783750          76.6783688361      B2        B2 (3)
   58    87           2.8849385166          78.5031680600      A2        A2 (4)
   59    71           3.6549167086          99.4553398534      B2        B2 (3)
   60    24           3.7453741849         101.9168129219      A1        A1 (1)
   61    88           4.0183502679         109.3448697741      A2        A2 (4)
   62    47           4.0851536669         111.1626826788      B1        B1 (2)
   63    25           4.1673579200         113.3995741267      A1        A1 (1)
   64    72           4.2489778194         115.6205645027      B2        B2 (3)
   65    48           4.2905682719         116.7522982508      B1        B1 (2)
   66    26           4.3755642705         119.0651569555      A1        A1 (1)
   67    89           4.3781349482         119.1351086515      A2        A2 (4)
   68    49           4.4061973473         119.8987253534      B1        B1 (2)
   69    73           4.5175126392         122.9277684407      B2        B2 (3)
   70    27           4.7260617855         128.6026792176      A1        A1 (1)
   71    74           4.8467960754         131.8880262682      B2        B2 (3)
   72    75           5.1493122111         140.1199088216      B2        B2 (3)
   73    90           5.1537463471         140.2405677970      A2        A2 (4)
   74    76           5.2555073406         143.0096252073      B2        B2 (3)
   75    28           5.3305761623         145.0523516955      A1        A1 (1)
   76    50           5.5259567461         150.3689276697      B1        B1 (2)
   77    29           5.6676950376         154.2258226614      A1        A1 (1)
   78    30           6.1782230669         168.1179966051      A1        A1 (1)
   79    77           6.5135947674         177.2439245266      B2        B2 (3)
   80    51           6.7095266521         182.5755021637      B1        B1 (2)
   81    31           6.8989290368         187.7294030709      A1        A1 (1)
   82    52           7.1335562016         194.1139328066      B1        B1 (2)
   83    53           7.2529450774         197.3626692795      B1        B1 (2)
   84    78           7.3075036611         198.8472838188      B2        B2 (3)
   85    91           7.3151576649         199.0555598501      A2        A2 (4)
   86    32           7.3267277916         199.3703990046      A1        A1 (1)
   87    92           7.3557078218         200.1589857170      A2        A2 (4)
   88    33           7.5373093892         205.1006155952      A1        A1 (1)
   89    34           7.9023262488         215.0332293066      A1        A1 (1)
   90    79           7.9267699477         215.6983761709      B2        B2 (3)
   91    80           8.8081111944         239.6808907395      B2        B2 (3)
   92    35          15.7739096927         429.2299043653      A1        A1 (1)


  VSCF finished.

 @CHECKOUT-I, Total execution time (CPU/WALL):        4.71/       0.74 seconds.
--executable xvscf finished with status     0 in        1.23 seconds (walltime).
 --invoking executable--
/home/CEISAM/blondel-a/soft/cfour2.1/cfour2.1-serial-mkl/bin/xvtran
 @GETMEM-I,  Allocated   95367 MB of main memory.
  Full RHF integral transformation
  The following   1 MOs will be dropped:
    1
  There are  91 active molecular orbitals.
  Transformation of IIII integrals :
  1 pass through the AO integral file was required.
      262933 AO integrals were read.
      266728 MO integrals were written to HF2.
  Transformation of IIJJ integrals :
  1 pass through the AO integral file was required.
      466389 AO integrals were read.
      480525 MO integrals were written to HF2.
  Transformation of IJIJ integrals :
  1 pass through the AO integral file was required.
      865293 AO integrals were read.
      887262 MO integrals were written to HF2.
  Transformation of IJKL integrals :
  1 pass through the AO integral file was required.
      575256 AO integrals were read.
      594864 MO integrals were written to HF2.
  Summary of active molecular orbitals: 
------------------------------------------------------------------------
 
  Index      Eigenvalue    Symmetry    Index      Eigenvalue    Symmetry
------------------------------------------------------------------------
     1        -1.3527400        1        47         4.0851537        2
     2        -0.5849370        1        48         4.2905683        2
     3        -0.5102575        2        49         4.4061973        2
     4        -0.7164335        3        50         5.5259567        2
     5         0.0294082        1        51         6.7095267        2
     6         0.1359281        1        52         7.1335562        2
     7         0.1751862        1        53         7.2529451        2
     8         0.2449924        1        54         0.0476882        3
     9         0.3103486        1        55         0.1830229        3
    10         0.4377884        1        56         0.2273956        3
    11         0.6584607        1        57         0.3658266        3
    12         0.7082091        1        58         0.4664504        3
    13         0.8310078        1        59         0.5994562        3
    14         0.8916943        1        60         0.9129302        3
    15         0.9620331        1        61         0.9308212        3
    16         1.0217718        1        62         1.0438971        3
    17         1.1822083        1        63         1.1090787        3
    18         1.5362444        1        64         1.2601741        3
    19         1.8038846        1        65         1.8202170        3
    20         2.1189048        1        66         1.9872777        3
    21         2.3260307        1        67         2.4427505        3
    22         2.4185798        1        68         2.6763117        3
    23         2.4790948        1        69         2.8178784        3
    24         2.7723484        1        70         3.6549167        3
    25         3.7453742        1        71         4.2489778        3
    26         4.1673579        1        72         4.5175126        3
    27         4.3755643        1        73         4.8467961        3
    28         4.7260618        1        74         5.1493122        3
    29         5.3305762        1        75         5.2555073        3
    30         5.6676950        1        76         6.5135948        3
    31         6.1782231        1        77         7.3075037        3
    32         6.8989290        1        78         7.9267699        3
    33         7.3267278        1        79         8.8081112        3
    34         7.5373094        1        80         0.2653260        4
    35         7.9023262        1        81         0.7224387        4
    36        15.7739097        1        82         0.9225173        4
    37         0.1586372        2        83         1.1764651        4
    38         0.3003416        2        84         1.5108806        4
    39         0.7315957        2        85         2.3162323        4
    40         0.8463601        2        86         2.8849385        4
    41         0.9183006        2        87         4.0183503        4
    42         1.0828861        2        88         4.3781349        4
    43         1.5844218        2        89         5.1537463        4
    44         2.2626989        2        90         7.3151577        4
    45         2.4206618        2        91         7.3557078        4
    46         2.6976846        2
------------------------------------------------------------------------
  -1.35273998542031      -0.584937011344922      -0.510257529269527     
 -0.716433454709401       2.940823696408898E-002  0.135928113448802     
  0.175186154003883       0.244992392367500       0.310348617711232     
  0.437788428638739       0.658460677067674       0.708209114959499     
  0.831007773605849       0.891694328731529       0.962033059922756     
   1.02177179094355        1.18220830126733        1.53624436632735     
   1.80388461344125        2.11890478792417        2.32603068966544     
   2.41857976952226        2.47909478054067        2.77234836541047     
   3.74537418490366        4.16735792002150        4.37556427048498     
   4.72606178550856        5.33057616230783        5.66769503756251     
   6.17822306693476        6.89892903684067        7.32672779159722     
   7.53730938924610        7.90232624875070        15.7739096927102     
  0.158637223916078       0.300341550438744       0.731595708094871     
  0.846360088345003       0.918300618605305        1.08288609630712     
   1.58442182146001        2.26269888302575        2.42066177439809     
   2.69768459944423        4.08515366693288        4.29056827191023     
   4.40619734729983        5.52595674608928        6.70952665213300     
   7.13355620157937        7.25294507737338       4.768820640058808E-002
  0.183022930484546       0.227395642628645       0.365826632655257     
  0.466450419565114       0.599456202614145       0.912930167807297     
  0.930821183876171        1.04389710962865        1.10907873349732     
   1.26017406921729        1.82021698222426        1.98727766472315     
   2.44275049111418        2.67631166472956        2.81787837497942     
   3.65491670862194        4.24897781943465        4.51751263923986     
   4.84679607535898        5.14931221106418        5.25550734062758     
   6.51359476735166        7.30750366108766        7.92676994771724     
   8.80811119435882       0.265326040014793       0.722438677999933     
  0.922517346262217        1.17646512810044        1.51088061239189     
   2.31623227437523        2.88493851657567        4.01835026785636     
   4.37813494816477        5.15374634708964        7.31515766486682     
   7.35570782178490     
 @CHECKOUT-I, Total execution time (CPU/WALL):       10.32/       0.69 seconds.
--executable xvtran finished with status     0 in        1.17 seconds (walltime).
 --invoking executable--
/home/CEISAM/blondel-a/soft/cfour2.1/cfour2.1-serial-mkl/bin/xintprc
 @GETMEM-I,  Allocated   95367 MB of main memory.
  Processing integrals for CCSD calculation.
  @GMOIAA-I, Processing MO integrals for spin case AA.
  @GMOIAA-I, Generation of integral list completed.
                      TYPE                NUMBER
                      ----               --------
                      PPPP               1862118
                      PPPH                340336
                      PPHH                 15793
                      PHPH                 10160
                      PHHH                   950
                      HHHH                    22

                     TOTAL               2229379

  @FORMT2-I, Second-order MP correlation energies:
            ------------------------------------------------
            E(SCF)                  =    -76.060466332050 a.u.
            E2(AA)                  =     -0.032587552856 a.u.
            E2(AB)                  =     -0.203341492940 a.u.
            E2(TOT)                 =     -0.268516598652 a.u.
            Total MP2 energy        =    -76.328982930701 a.u.
            ------------------------------------------------
   Largest T2 amplitudes for spin case AB:
       _       _                 _       _                 _       _
   i   j   a   b             i   j   a   b             i   j   a   b
-----------------------------------------------------------------------------
[  4   4  58  58]-0.01957 [  2   2  14  14]-0.01876 [  3   3  42  42]-0.01508
[  4   4  62  58]-0.01385 [  4   4  58  62]-0.01385 [  4   2  58  14] 0.01346
[  2   4  14  58] 0.01346 [  4   4  59  59]-0.01310 [  3   3  41  41]-0.01301
[  2   2  59  59]-0.01260 [  4   4  62  62]-0.01218 [  3   3  42  41]-0.01189
[  3   3  41  42]-0.01189 [  3   2  41  14] 0.01185 [  2   3  14  41] 0.01185
-----------------------------------------------------------------------------
   Norm of T2AB vector (    31238 symmetry allowed elements):  0.2173862521.
-----------------------------------------------------------------------------
 @CHECKOUT-I, Total execution time (CPU/WALL):        5.64/       0.66 seconds.
--executable xintprc finished with status     0 in        1.15 seconds (walltime).
  calling xncc 
 --invoking executable--
/home/CEISAM/blondel-a/soft/cfour2.1/cfour2.1-serial-mkl/bin/xncc
 @GETMEM-I,  Allocated       7 MB of main memory.

Running with 20 threads/proc

Following the lowest-energy eigenvector.
Using discrete restarting.
Using an orthogonal subspace.
Orthogonalizing against previous roots.
Using Modified Gram-Schmidt orthogonalization.

Using DIIS to accelerate the convergence of T1 and T2
Using immediate high-order contributions
Damping factor for T3: 0.000000
Damping factor for T4: 0.000000

Transposes are coarse-threaded

Memory limit:                 93.132 GiB
Minimum memory requirement:   25.610 MiB
Compromise memory amount:     36.683 MiB
Optimal memory requirement:  157.576 MiB

List              Location   Size        Cached Hunks Est. Disk I/O
----------------- ---------- ----------- ------ ----- -------------

           HR_DAV      470:1    7.413 MiB    Yes     -     1.629 GiB
                R        471  948.844 KiB    Yes     -    83.394 MiB
            R_DAV      470:0    7.413 MiB    Yes     -     3.158 GiB
           T_DIIS       70:0    1.196 MiB    Yes     -    21.523 MiB
           Z_DIIS       70:1    1.196 MiB    Yes     -    35.872 MiB
          <AI|bj>         18  244.047 KiB    Yes     -     9.175 MiB
          <Ab|Cd>        233  110.649 MiB    Yes     -     8.212 GiB
          <Ab|Ci>         30    5.122 MiB    Yes     -     2.501 GiB
          <Ab|Ij>         16  244.047 KiB    Yes     -   152.291 MiB
          <Ai|Bj>         25  244.047 KiB    Yes     -     7.865 MiB
          <Aj|bI>         21  244.047 KiB     No     -         0   B
          <Ij|Ka>         10   11.500 KiB    Yes     -     5.694 MiB
          <Ij|Kl>         13      576   B    Yes     -     9.000 KiB
           DD(AI)      448:8      856   B    Yes     -    43.500 KiB
        DD(Ab,Ij)        450  244.047 KiB    Yes     -    14.783 MiB
            F(EA)       92:0   16.664 KiB    Yes     -     6.412 MiB
            F(EM)       93:0      856   B    Yes     -   117.031 KiB
            F(MI)       91:0       48   B    Yes     -    19.172 KiB
           HR(AI)      490:2      856   B    Yes     -     2.708 MiB
        HR(Ab,Ij)        463  244.047 KiB    Yes     -     1.002 GiB
            R(AI)      490:0      856   B    Yes     -     8.017 MiB
         R(Ab,Ij)        446  244.047 KiB    Yes     -     2.792 GiB
            T(AI)       90:0      856   B    Yes     -   538.344 KiB
         T(Ab,Ij)         46  244.047 KiB    Yes     -    85.083 MiB
         W(Mn,Ij)         53      576   B    Yes     -    51.750 KiB
        W~(Ab,Ej)        130    5.122 MiB    Yes     -   327.814 MiB
        W~(EM,bj)         56  244.047 KiB    Yes     -    37.894 MiB
        W~(Em,Bj)         58  244.047 KiB    Yes     -    34.319 MiB
        W~(Ij,Mb)        110   11.500 KiB    Yes     -     1.224 MiB
       W~~(EM,bj)         76  244.047 KiB    Yes     -     1.907 MiB
       W~~(Em,Bj)         78  244.047 KiB    Yes     -     1.907 MiB
         X(Ab,Ej)        430    5.122 MiB     No     -         0   B
         X(Ab,Ij)        416  244.047 KiB     No     -         0   B
            X(EA)      492:0   16.664 KiB    Yes     -     5.197 MiB
            X(EM)      493:0      856   B    Yes     -    81.562 KiB
         X(EM,bj)        418  244.047 KiB     No     -         0   B
         X(Ef,Am)        469    5.122 MiB     No     -         0   B
         X(Em,Bj)        425  244.047 KiB     No     -         0   B
         X(Ij,Mb)        410   11.500 KiB    Yes     -     1.912 MiB
            X(MI)      491:0       48   B    Yes     -    11.250 KiB
         X(Mn,Ie)        465   11.500 KiB     No     -         0   B
         X(Mn,Ij)        413      576   B    Yes     -    60.000 KiB
            Z(AI)       90:2      856   B    Yes     -   125.391 KiB
         Z(Ab,Ij)         63  244.047 KiB    Yes     -    35.749 MiB

Simulation and memory analysis took 0.160 seconds

MP2 correlation energy:  -0.268516598651542

Non-iterative calculation of MP2 took 0.034 cpu seconds and 0.002 walltime seconds at 0.583 Gflops/sec

Total MP2 energy: -76.328982930701173

Beginning iterative solution of CCSD equations:

It.  Correlation Energy T1 Residual T2 Residual CPU Time (s) Walltime (s)
-------------------------------------------------------------------------
  1  -0.267061727385451 1.21648e-02 2.43295e-03        2.099        0.122
  2  -0.272496170310744 9.06914e-04 2.21283e-03        0.623        0.031
  3  -0.272641489612385 2.05972e-03 3.40532e-04        0.635        0.032
  4  -0.273147335496344 2.13072e-04 2.40971e-04        0.666        0.033
  5  -0.273203107714170 1.82570e-04 3.09083e-05        0.621        0.031

   A    I                     A    I                     A    I                  
-------------------------- -------------------------- -------------------------- 
   9    5 -0.0149491552109   62    5  0.0042730425492   24    5  0.0031545567198 
  15    5 -0.0129335626365   34    3  0.0037602859135   46    4 -0.0031000345895 
   8    4  0.0084825143932   26    5 -0.0036715731451    6    4 -0.0029696729695 
  16    4 -0.0078006979252   71    3  0.0035889940004   13    4  0.0028891514832 
  45    3  0.0054138471647   70    4  0.0033878215696   27    2 -0.0028141373824 

   A    B    I    J                     A    B    I    J                  
------------------------------------ ------------------------------------ 
  19   19    3    3 -0.0214024340134   34   34    3    3 -0.0132644508861 
  27   27    4    4 -0.0199531387336   19   27    3    4  0.0128273512601 
  35   35    5    5 -0.0155741154044   27   19    4    3  0.0128273512601 
  19   34    3    3 -0.0155139498272   35   29    5    5 -0.0126934962963 
  34   19    3    3 -0.0155139498272   29   35    5    5 -0.0126934962963 
  20   20    3    3 -0.0148906340447   27   16    4    4  0.0123748787171 
  20   20    4    4 -0.0138177367874   16   27    4    4  0.0123748787171 
  29   29    5    5 -0.0134357462293 

It.  Correlation Energy T1 Residual T2 Residual CPU Time (s) Walltime (s)
-------------------------------------------------------------------------
  6  -0.273203538422744 4.92559e-05 1.24349e-05        0.641        0.032
  7  -0.273203580204720 1.11886e-05 6.00734e-06        0.624        0.031
  8  -0.273203517461451 5.71543e-06 2.20899e-06        0.636        0.032
  9  -0.273203342724227 1.27658e-06 5.22189e-07        0.626        0.031
 10  -0.273203430274565 5.02664e-07 3.36183e-07        0.650        0.033

   A    I                     A    I                     A    I                  
-------------------------- -------------------------- -------------------------- 
   9    5 -0.0150425319089   62    5  0.0042722705414   24    5  0.0031585555809 
  15    5 -0.0129900291809   34    3  0.0037724753303   46    4 -0.0030960867837 
   8    4  0.0085059606224   26    5 -0.0036767943531    6    4 -0.0029948640453 
  16    4 -0.0078061723107   71    3  0.0035888131787   13    4  0.0028773056254 
  45    3  0.0054146148782   70    4  0.0033874008634   27    2 -0.0028132237260 

   A    B    I    J                     A    B    I    J                  
------------------------------------ ------------------------------------ 
  19   19    3    3 -0.0214004377593   34   34    3    3 -0.0132646795359 
  27   27    4    4 -0.0199506121864   19   27    3    4  0.0128257216225 
  35   35    5    5 -0.0155737234761   27   19    4    3  0.0128257216225 
  19   34    3    3 -0.0155137380697   35   29    5    5 -0.0126924872460 
  34   19    3    3 -0.0155137380697   29   35    5    5 -0.0126924872460 
  20   20    3    3 -0.0148881303467   27   16    4    4  0.0123738238766 
  20   20    4    4 -0.0138149784665   16   27    4    4  0.0123738238766 
  29   29    5    5 -0.0134351604230 

It.  Correlation Energy T1 Residual T2 Residual CPU Time (s) Walltime (s)
-------------------------------------------------------------------------
 11  -0.273203450054483 1.77806e-07 8.12343e-08        0.619        0.031
 12  -0.273203459840059 7.11446e-08 2.84711e-08        0.611        0.031

CCSD iterations converged in 12 cycles and 0.471 seconds (0.039 s/it.) at 5.589 Gflops/sec

Total CCSD energy: -76.333669791889690

             _
Formation of H took 0.074 seconds at 6.447 Gflops/sec

Searching for 1 roots in irrep 1

EOMEE-CCSD guess vector:

   A    I                  
-------------------------- 
   6    4  1.0000000000000 

Beginning iterative solution of EOMEE-CCSD equations:

It.  Correlation Energy R1 Residual R2 Residual CPU Time (s) Walltime (s)
-------------------------------------------------------------------------
  1   0.528578924937722 3.25658e-02 7.34992e-02        0.870        0.044
  2   0.441401033148461 8.27205e-02 2.79935e-02        0.537        0.027
  3   0.390075149270182 2.66661e-02 8.63273e-03        0.545        0.027
  4   0.372455197244938 3.00925e-02 6.58000e-03        0.575        0.029
  5   0.367534179781530 6.65955e-03 2.31528e-03        0.611        0.031
  6   0.366444669041823 4.51591e-03 1.48619e-03        0.654        0.033
  7   0.366129161888553 4.37595e-03 1.17642e-03        0.680        0.034
  8   0.366045444455144 1.93537e-03 1.04678e-03        0.717        0.036
  9   0.365963477689767 1.54950e-03 8.26157e-04        0.752        0.038
 10   0.365918591345986 6.39859e-04 7.12756e-04        0.792        0.040
Locking on root: 0.365904951570716
 11   0.365904951570716 2.75021e-04 3.81290e-04        0.825        0.041
 12   0.365905246000842 1.42102e-04 1.26076e-04        0.963        0.048
 13   0.365904957545784 5.64348e-05 4.84908e-05        1.247        0.063
 14   0.365904510233138 3.08942e-05 1.70985e-05        0.870        0.044
 15   0.365905174757109 1.27739e-05 7.23085e-06        0.903        0.045
 16   0.365905325817822 5.50030e-06 3.68985e-06        0.937        0.047

EOMEE-CCSD iterations converged in 16 cycles and 0.626 seconds (0.039 s/it.) at 8.790 Gflops/sec

EOMEE-CCSD excitation energy:   0.365905325817820 (  9.956790108930630 eV)
Total EOMEE-CCSD energy:      -75.967764466071870

Converged root:

   A    I                     A    I                     A    I                  
-------------------------- -------------------------- -------------------------- 
   6    4  0.5621992382576   15    5 -0.0485497933062   26    5 -0.0118147988181 
  10    4 -0.2615503094440   33    4  0.0244740179136   25    4 -0.0114823488648 
   8    4 -0.2324831612472    6    2 -0.0213142381229   19    3 -0.0114559991523 
   9    5 -0.1210434786555   10    2  0.0152174335138   35    5 -0.0112249686806 
  18    4 -0.1129401895216   29    5 -0.0120879565581   32    4  0.0104510932676 

   A    B    I    J                     A    B    I    J                  
------------------------------------ ------------------------------------ 
   8    6    4    4 -0.0392591697969    9    6    5    4  0.0281389039751 
   6    8    4    4 -0.0392591697969    6    9    4    5  0.0281389039751 
  27    6    4    4 -0.0376308912147    8    8    4    4  0.0279425215049 
   6   27    4    4 -0.0376308912147   15    6    5    4  0.0241600399483 
  16    6    4    4  0.0353775306857    6   15    4    5  0.0241600399483 
   6   16    4    4  0.0353775306857   18    6    4    4 -0.0238445166286 
  19    6    3    4  0.0332503060738    6   18    4    4 -0.0238445166286 
   6   19    4    3  0.0332503060738 

Searching for 1 roots in irrep 2

EOMEE-CCSD guess vector:

   A    I                  
-------------------------- 
   6    5  1.0000000000000 

Beginning iterative solution of EOMEE-CCSD equations:

It.  Correlation Energy R1 Residual R2 Residual CPU Time (s) Walltime (s)
-------------------------------------------------------------------------
  1   0.449717464839418 3.17790e-02 6.07785e-02        0.426        0.021
  2   0.358493933402313 7.92479e-02 3.55782e-02        0.462        0.023
  3   0.304811066619845 2.69941e-02 1.09941e-02        0.495        0.025
  4   0.285238493585393 3.19269e-02 7.45602e-03        0.528        0.026
  5   0.280238972162164 7.40155e-03 1.50338e-03        0.581        0.029
  6   0.279375456156712 3.23526e-03 7.87552e-04        0.592        0.030
  7   0.279194854337845 1.19387e-03 3.97411e-04        0.626        0.031
Locking on root: 0.279174318643980
  8   0.279174318643980 8.16534e-04 1.54602e-04        0.657        0.033
  9   0.279172710714084 2.11254e-04 9.03953e-05        0.699        0.035
 10   0.279167601086785 2.07590e-04 2.63714e-05        0.722        0.036
 11   0.279167344172838 4.38065e-05 1.50185e-05        0.763        0.038
 12   0.279166509674417 3.22198e-05 6.57671e-06        0.795        0.040
 13   0.279166190748973 1.15848e-05 3.45231e-06        0.824        0.041
 14   0.279166309306601 5.26028e-06 2.04359e-06        0.858        0.043

EOMEE-CCSD iterations converged in 14 cycles and 0.452 seconds (0.032 s/it.) at 9.348 Gflops/sec

EOMEE-CCSD excitation energy:   0.279166309306603 (  7.596501474904975 eV)
Total EOMEE-CCSD energy:      -76.054503482583087

Converged root:

   A    I                     A    I                     A    I                  
-------------------------- -------------------------- -------------------------- 
   6    5  0.5611803317706   16    5  0.0245780166183    9    4 -0.0071758904986 
   8    5 -0.2735482238828   25    5 -0.0137739481042   22    5 -0.0071464540191 
  10    5 -0.2496535139407   32    5  0.0135210908008    9    2  0.0046865382504 
  18    5 -0.1279627415560   27    5 -0.0132865508677   46    5 -0.0046363779701 
  33    5  0.0279203524699   50    5 -0.0077094449506   15    2  0.0041086253783 

   A    B    I    J                     A    B    I    J                  
------------------------------------ ------------------------------------ 
   9    6    5    5  0.0408180774115    6    8    5    4 -0.0272938609903 
   6    9    5    5  0.0408180774115    8    6    4    5 -0.0272938609903 
  19    6    3    5  0.0345075925811    6   27    5    4 -0.0272542458691 
   6   19    5    3  0.0345075925811   27    6    4    5 -0.0272542458691 
  15    6    5    5  0.0330857904619   35    6    5    5  0.0267945884136 
   6   15    5    5  0.0330857904619    6   35    5    5  0.0267945884136 
  29    6    5    5  0.0306214734007    6   16    5    4  0.0249649122532 
   6   29    5    5  0.0306214734007 

Searching for 1 roots in irrep 3

EOMEE-CCSD guess vector:

   A    I                  
-------------------------- 
   7    4  1.0000000000000 

Beginning iterative solution of EOMEE-CCSD equations:

It.  Correlation Energy R1 Residual R2 Residual CPU Time (s) Walltime (s)
-------------------------------------------------------------------------
  1   0.577294336013641 2.90783e-02 7.41843e-02        0.449        0.022
  2   0.490859694227880 8.17358e-02 2.74177e-02        0.493        0.025
  3   0.448417784975753 3.04151e-02 6.88082e-03        0.523        0.026
  4   0.436571174205360 4.06644e-02 6.30613e-03        0.556        0.028
  5   0.431611578254030 8.77833e-03 2.14100e-03        0.592        0.030
  6   0.430162927137890 3.74761e-03 1.37819e-03        0.618        0.031
  7   0.429876411648250 2.36224e-03 1.07123e-03        0.658        0.033
Locking on root: 0.429844152771436
  8   0.429844152771436 1.58819e-03 1.28527e-03        0.676        0.034
  9   0.429800038436989 8.37550e-04 7.94558e-04        0.715        0.036
 10   0.429777904754319 5.49382e-04 2.96144e-04        0.776        0.039
 11   0.429769355496541 2.93033e-04 1.14898e-04        0.801        0.040
 12   0.429768411276172 2.04035e-04 3.69622e-05        0.827        0.041
 13   0.429766680456287 8.93668e-05 3.00977e-05        0.881        0.044
 14   0.429766363706137 3.44384e-05 1.52650e-05        0.892        0.045
 15   0.429767587072020 1.52704e-05 4.21890e-06        0.931        0.047
 16   0.429767673206722 1.10117e-05 1.41629e-06        0.964        0.048
 17   0.429767548048173 6.19118e-06 1.66714e-06        0.996        0.050

EOMEE-CCSD iterations converged in 17 cycles and 0.618 seconds (0.036 s/it.) at 9.660 Gflops/sec

EOMEE-CCSD excitation energy:   0.429767548048176 ( 11.694569522816831 eV)
Total EOMEE-CCSD energy:      -75.903902243841515

Converged root:

   A    I                     A    I                     A    I                  
-------------------------- -------------------------- -------------------------- 
   7    4  0.5785334255070   34    4  0.0246700382548   20    4  0.0128429741718 
  11    4  0.3204679120907    7    2 -0.0185942543032   39    4  0.0112166339042 
  12    4  0.1309305220129   31    4  0.0151631527589   28    4  0.0097000305701 
  19    4  0.1134047801804   23    5 -0.0150831033965   21    3  0.0090699080011 
  14    5 -0.0414649742985   17    4  0.0136328842639   11    2 -0.0083440911463 

   A    B    I    J                     A    B    I    J                  
------------------------------------ ------------------------------------ 
   7   27    4    4 -0.0388565620149    9    7    5    4  0.0320837383393 
  27    7    4    4 -0.0388565620149    7    9    4    5  0.0320837383393 
   7    8    4    4 -0.0355721511197   11    7    3    4  0.0262825456003 
   8    7    4    4 -0.0355721511197    7   11    4    3  0.0262825456003 
   7   16    4    4  0.0352952512232   15    7    5    4  0.0258932748272 
  16    7    4    4  0.0352952512232    7   15    4    5  0.0258932748272 
  19    7    3    4  0.0346426335274    7   18    4    4 -0.0234125075503 
   7   19    4    3  0.0346426335274 

Searching for 1 roots in irrep 4

EOMEE-CCSD guess vector:

   A    I                  
-------------------------- 
   7    5  1.0000000000000 

Beginning iterative solution of EOMEE-CCSD equations:

It.  Correlation Energy R1 Residual R2 Residual CPU Time (s) Walltime (s)
-------------------------------------------------------------------------
  1   0.500396090878767 2.94239e-02 6.11204e-02        0.451        0.023
  2   0.409801750021505 8.10966e-02 3.56323e-02        0.479        0.024
  3   0.365404182782174 3.04880e-02 9.08817e-03        0.517        0.026
  4   0.352342140045143 4.31526e-02 1.05347e-02        0.550        0.028
  5   0.346252131489083 1.01609e-02 2.31695e-03        0.582        0.029
  6   0.344641053962154 5.30916e-03 1.61895e-03        0.608        0.030
  7   0.344197395621701 3.44258e-03 1.33251e-03        0.648        0.032
  8   0.344080768055454 1.82865e-03 4.03282e-04        0.679        0.034
Locking on root: 0.344047927851734
  9   0.344047927851734 6.37809e-04 1.75326e-04        0.718        0.036
 10   0.344027610859549 2.64109e-04 9.61732e-05        0.743        0.037
 11   0.344026061683829 5.38695e-05 4.17381e-05        0.774        0.039
 12   0.344023548795062 1.71713e-05 9.58048e-06        0.818        0.041
 13   0.344022898738300 5.16347e-06 2.03425e-06        0.848        0.042

EOMEE-CCSD iterations converged in 13 cycles and 0.422 seconds (0.032 s/it.) at 8.916 Gflops/sec

EOMEE-CCSD excitation energy:   0.344022898738302 (  9.361338995947319 eV)
Total EOMEE-CCSD energy:      -75.989646893151388

Converged root:

   A    I                     A    I                     A    I                  
-------------------------- -------------------------- -------------------------- 
   7    5  0.5611690169082   34    5  0.0317866379536   28    5  0.0078927671665 
  11    5  0.3259592631276   31    5  0.0161727575337   14    2  0.0063362711087 
  12    5  0.1718874339807   17    5  0.0090467010052   36    5  0.0057266393473 
  19    5  0.1330089031389   39    5  0.0081381958525   52    5  0.0036040398355 
  20    5  0.0344985830795   45    5  0.0081296058393   54    5  0.0034447036600 

   A    B    I    J                     A    B    I    J                  
------------------------------------ ------------------------------------ 
   7    9    5    5  0.0404407431078    7   27    5    4 -0.0279874674305 
   9    7    5    5  0.0404407431078   27    7    4    5 -0.0279874674305 
  19    7    3    5  0.0347592228378    7    8    5    4 -0.0273983028379 
   7   19    5    3  0.0347592228378    8    7    4    5 -0.0273983028379 
   7   15    5    5  0.0314937526291    7   35    5    5  0.0269890083215 
  15    7    5    5  0.0314937526291   35    7    5    5  0.0269890083215 
   7   29    5    5  0.0310616432094   11    7    3    5  0.0264472261835 
  29    7    5    5  0.0310616432094 

 @CHECKOUT-I, Total execution time (CPU/WALL):       57.85/       3.20 seconds.
--executable xncc finished with status     0 in        3.74 seconds (walltime).
  The final electronic energy is       -75.989646893151388 a.u. 
  This computation required                           11.75 seconds (walltime).
