 --invoking executable--
/home/CEISAM/blondel-a/soft/cfour2.1/cfour2.1-serial-mkl/bin/xjoda


   *************************************************************************
         <<<     CCCCCC     CCCCCC   |||     CCCCCC     CCCCCC   >>>
       <<<      CCC        CCC       |||    CCC        CCC         >>>
      <<<      CCC        CCC        |||   CCC        CCC            >>>
    <<<        CCC        CCC        |||   CCC        CCC              >>>
      <<<      CCC        CCC        |||   CCC        CCC            >>>
       <<<      CCC        CCC       |||    CCC        CCC         >>>
         <<<     CCCCCC     CCCCCC   |||     CCCCCC     CCCCCC   >>>
   *************************************************************************

     ****************************************************************
     * CFOUR Coupled-Cluster techniques for Computational Chemistry *
     ****************************************************************
 

   Department of Chemistry                Institut fuer Physikalische Chemie
   University of Florida                  Universitaet Mainz
   Gainesville, FL 32611, USA             D-55099 Mainz, Germany

   Department of Chemistry                Fakultaet fuer Chemie und Biowiss.
   Johns Hopkins University               Karlsruher Institut fuer Technologie
   Baltimore, MD 21218, USA               D-76131 Karlsruhe, Germany

   Department of Chemistry                Department of Physical Chemistry
   Southern Methodist University          Eotvos Lorand University
   Dallas, TX 75275, USA                  H-1053 Budapest, Hungary

 
                       Version 2.1
 
                     cribbar042                                        
                     Mon May  3 08:04:52 CEST 2021                     
                     integer*8 version is running
 
********************************************************************************
*                          Input from ZMAT file                                *
********************************************************************************
Ketene -GS                                                                      
B     0.0000000000            0.0000000000            0.0000000000              
F     0.0000000000            0.0000000000            2.3972962605              
                                                                                
*CFOUR(COORD=CARTESIAN,UNITS=BOHR                                               
       MEMORY=250,MEM_UNIT=GB,CC_PROG=ECC                                       
       FROZEN_CORE=1                                                            
       CALC=CC2,BASIS=AUG-PVDZ                                                  
       SCF_CONV=8,CC_CONV=7,ESTATE_CONV=5,ESTATE_MAXCYC=120                     
       EXCITE=EOMEE,ESTATE_SYM=0/1/0/0)                                         
                                                                                
********************************************************************************
    -------------------------------------------------------------------
                    CFOUR Control Parameters 
    -------------------------------------------------------------------
        External           Internal           Value            Units
          Name               Name
    -------------------------------------------------------------------
       ABCDTYPE             IABCDT         STANDARD    [  0]    ***   
       ANHARMONIC           IANHAR         OFF         [  0]    ***   
       ANH_ALGORIT          IANALG         STANDARD    [  0]    ***   
       ANH_DERIVAT          IANDER         SECOND      [  1]    ***   
       ANH_MODE             ANHMOD         VIBRATION   [  0]    ***   
       ANH_STEPSIZ          ICUBST             50000          x 10-6  
       ANH_SYMMETR          IANHSM         ABELIAN     [  0]    ***   
       AO_LADDERS           IAOLAD         SINGLEPASS  [  1]    ***   
       AV_SCF               IAVSCF         OFF         [  0]    ***   
       BASIS                IBASIS         AUG-PVDZ    [ 33]    ***   
       BOTHVECTORS          BOTHVC         OFF         [  0]    ***   
       BOX_POTENT           IPIAB          OFF         [  0]    ***   
       BREIT                IBREIT         OFF         [  0]    ***   
       BRUCK_CONV           IBRTOL          10D-  4             ***   
       BRUECKNER            IBRKNR         OFF         [  0]    ***   
       BUFFERSIZE           IBUFFS              4096            ***   
       CACHE_RECS           ICHREC             10               ***   
       CALCLEVEL            ICLLVL         CC2         [ 31]    ***   
       CCORBOPT             ICCORB         OFF         [  0]  x 0.01  
       CC_CONV              ICCCNV          10D-  7             ***   
       CC_EXPORDER          ICCEOR              5               ***   
       CC_EXTRAPOL          ICCEXT         DIIS        [  1]    ***   
       CC_GUESS             ICCGES         MP2         [  0]    ***   
       CC_MAXCYC            ICCCYC            100              cycles 
       CC_PROGRAM           ICCPRO         VCC         [  0]    ***   
       CHARGE               ICHRGE              0               ***   
       CHOLESKY             ICHOLE         OFF         [  0]    ***   
       CIS_CONV             ICISTL              5               ***   
       COMM_SIZE            IPSIZE            ***               ***   
       CONSTANT             ICONST         OLD         [  1]    ***   
       CONTINUUM            ICONTU         NONE        [  0]    ***   
       CONTRACTION          ICNTYP         GENERAL     [  1]    ***   
       COORDINATES          ICOORD         CARTESIAN   [  1]    ***   
       CPHF_CONVER          ICPHFT          10D- 16             ***   
       CPHF_MAXCYC          ICPHFC             64              cycles 
       CUBIC                ICUBIC         OFF         [  0]    ***   
       CURVILINEAR          ICURVY         OFF         [  0]    ***   
       DBOC                 IDBOC          OFF         [  0]    ***   
       DCT                  IDCT           OFF         [  0]    ***   
       DERIV_LEV            IDRLVL         ZERO        [  0]    ***   
       DEVMEM_SIZE          IDVMEM         *********           MByte  
       DIAG_MRCC            IEOMST          10D-  0             ***   
       DIFF_TYPE            IDIFTY         RELAXED     [  0]    ***   
       DIRECT               IDIRCT         OFF         [  0]    ***   
       DROPMO               IDRPMO      NONE         
       ECP                  IECP           OFF         [  0]    ***   
       EIGENVECTOR          IVEC                1               ***   
       EL_ANHARM            IELANH         OFF         [  0]    ***   
       EOMFOLLOW            IEOMSR         ENERGY      [  0]    ***   
       EOMIP                IEOMIP         OFF         [  0]    ***   
       EOMLEVEL             HBARFM         SAME        [  0]    ***   
       EOM_MRCC             IMRCCE         NEW         [  1]    ***   
       EOM_NONIT            EOMNON         OFF         [  0]    ***   
       EOM_NSING            IEOMSI          10D-  0             ***   
       EOM_NSTATES          IMRCCD         DAVIDSON    [  0]    ***   
       EOM_NTRIP            IEOMTR          10D-  0             ***   
       EOM_ORDER            IEXORD         ENERGY      [  0]    ***   
       EOM_PROPSTA          IEOMST              0               ***   
       ESTATE_CONV          IEXTOL          10D-  5             ***   
       ESTATE_DIAG          IEXDIG         ITERATIVE   [  0]    ***   
       ESTATE_LOCK          IESLOC         ON          [  1]    ***   
       ESTATE_MAXC          IEXMXC            120               ***   
       ESTATE_PROP          IEXPRP         OFF         [  0]    ***   
       ESTATE_SYM           IEXSYM   0,  1,  0,  0,
       EVAL_HESS            IRECAL              0            # of cyc.
       EXCITATION           IEXCIT              0               ***   
       EXCITE               IEXCIT         EOMEE       [  3]    ***   
       EXTERN_POT           IEXPOT         OFF         [  0]    ***   
       FCGRADNEW            IFCGNW         OFF         [  0]    ***   
       FC_FIELD             IFINFC              0             x 10-6  
       FD_CALTYPE           IFDCAL         GRADONLY    [  0]    ***   
       FD_PROJECT           IFDPRJ         OFF         [  1]    ***   
       FD_STEPSIZE          IDISFD              0            10-4 bohr
       FD_USEGROUP          IFDGRP         FULL        [  0]    ***   
       FILE_RECSIZ          IFLREC              4096           words  
       FINITE_PERT          IFIPER              0             x 10-6  
       FIXGEOM              IFIXGM         OFF         [  0]    ***   
       FOCK                 IFOCK          AO          [  1]    ***   
       FREQ_ALGORI          IVIALG         STANDARD    [  0]    ***   
       FROZEN_CORE          IFROCO         ON          [  1]    ***   
       GAMMA_ABCD           IGABCD         STORE       [  0]    ***   
       GAMMA_ABCI           IGABCI         STORE       [  0]    ***   
       GENBAS_1             IGNBS1              0               ***   
       GENBAS_2             IGNBS2              0               ***   
       GENBAS_3             IGNBS3              0               ***   
       GENBAS_4             IGNBS4              0               ***   
       GEO_CONV             ICONTL              5              H/bohr 
       GEO_MAXCYC           IOPTCY             50               ***   
       GEO_MAXSTEP          IMXSTP            300            millibohr
       GEO_METHOD           INR            SINGLE_POINT[  5]    ***   
       GIAO                 IGIAO          OFF         [  1]    ***   
       GIMIC                IGIMIC         OFF         [  0]    ***   
       GRID                 IGRID          OFF         [  0]    ***   
       GRID_ALGO            IGALGO         SERIAL      [  0]    ***   
       GUESS                IGUESS         MOREAD      [  0]    ***   
       HBAR                 IHBAR          ON          [  1]    ***   
       HESS_TYPE            IHESTP         SCF         [  0]    ***   
       HF2_FILE             IHF2Fl         USE         [  1]    ***   
       HFSTABILITY          ISTABL         OFF         [  0]    ***   
       INCORE               INCORE         OFF         [  0]    ***   
       INPUT_MRCC           IMRCC          ON          [  1]    ***   
       INTEGRALS            INTTYP         VMOL        [  1]    ***   
       JODA_PRINT           IJPRNT              0               ***   
       KEYWORD_OUT          IDMPKW         NO          [  0]    ***   
       LINDEP_TOL           ILINDP              8               ***   
       LINEQ_CONV           IZTACN          10D-  7           cycles  
       LINEQ_EXPOR          ILMAXD              5               ***   
       LINEQ_MAXCY          ILMAXC            100               ***   
       LINEQ_TYPE           ILTYPE         DIIS        [  1]    ***   
       LOCK_ORBOCC          ILOCOC         OFF         [  0]    ***   
       MEMORY_SIZE          IMEMSZ         *********           words  
       MEM_UNIT             IMEMU          GB          [  3]    ***   
       MRCC                 IMRCCC         OFF         [  0]    ***   
       MULTIPLICTY          IMULTP              1               ***   
       NACOUPLING           IVCOUP         OFF         [  0]    ***   
       NEGEVAL              IDIE           ABORT       [  0]    ***   
       NEWNORM              INEWNO         OFF         [  0]    ***   
       NON-HF               INONHF         OFF         [  0]    ***   
       NTOP_TAMP            ITOPT2             15               ***   
       NUC_MODEL            INUCMO         POINT       [  0]    ***   
       OCCUPATION           IOCCU   ESTIMATED BY SCF 
       OPEN-SHELL           IOPEN          SPIN-ORBITAL[  0]    ***   
       OPTVIB               IOPTVB         OFF         [  0]    ***   
       ORBITALS             IORBTP         STANDARD    [  0]    ***   
       PARALLEL             IPARAL         ON          [  1]    ***   
       PARA_INT             IPINTS         ON          [  1]    ***   
       PARA_PRINT           IPPRIN              0               ***   
       PERT_ORB             IPTORB         STANDARD    [  0]    ***   
       POINTS               IGRDFD              0               ***   
       PRINT                IPRNT               0               ***   
       PROPS                IPROPS         OFF         [  0]    ***   
       PROP_INTEGR          IINTYP         INTERNAL    [  0]    ***   
       PSI                  IPSI           OFF         [  0]    ***   
       QC_ALG               IQCALG         FLM         [  0]    ***   
       QC_LINALG            IQCLIN         TRIDIAG     [  2]    ***   
       QC_MAXCYC            IQCMAX          10D-100           cycles  
       QC_MAXSCFCY          IQCMSC          10D- 15           cycles  
       QC_RTRUST            IQCRTR          10D-  0           x 10-3  
       QC_SKIPSCF           IQCSKI         OFF         [  0]    ***   
       QC_START             IQCSTA          10D-  1             ***   
       QRHFGUESS            IQGUES         OFF         [  0]    ***   
       QUARTIC              IQUART         OFF         [  0]    ***   
       RAMAN_INT            IRAMIN         OFF         [  0]    ***   
       RAMAN_ORB            IRAMRE         UNRELAXED   [  0]    ***   
       RDO                  IRDOFM         OFF         [  0]    ***   
       REDUCE_REPR          REDREP         Ir          [  0]    ***   
       REFERENCE            IREFNC         RHF         [  0]    ***   
       RELATIVIST           IRELAT         OFF         [  0]    ***   
       RELAX_DENS           IRDENS         OFF         [  0]    ***   
       RESET_FLAGS          IRESET         OFF         [  0]    ***   
       RESTART_CC           ICCRES         OFF         [  0]    ***   
       ROT_EVEC             ROTVEC              0               ***   
       SAVE_INTS            ISVINT         OFF         [  0]    ***   
       SCALE_ON             ISTCRT              0               ***   
       SCF_CONV             ISCFCV          10D-  8             ***   
       SCF_DAMPING          IDAMP               0             x 10-3  
       SCF_EXPORDE          IRPPOR              6               ***   
       SCF_EXPSTAR          IRPPLS              8               ***   
       SCF_EXTRAPO          IRPP           ON          [  1]    ***   
       SCF_MAXCYC           ISCFCY            150              cycles 
       SCF_NOSTOP           ISCFST         OFF         [  0]    ***   
       SCF_PRINT            ISCFPR              0               ***   
       SCF_PROG             ISCFPR         SCF         [  0]    ***   
       SD_FIELD             IFINSD              0             x 10-6  
       SOPERT               IPERSO         OFF         [  0]    ***   
       SPHERICAL            IDFGHI         ON          [  1]    ***   
       SPINORBIT            ISOCAL         OFF         [  0]    ***   
       SPINROTATIO          ISRCON         OFF         [  0]    ***   
       SPIN_FLIP            ISPFLP         OFF         [  0]    ***   
       SPIN_ORBIT           ISPORB         OFF         [  0]    ***   
       SPIN_SCAL            ISCSMP         OFF         [  0]    ***   
       STEEPSCALE           ISTPSC              1000          x 10-3  
       SUBGROUP             ISUBGP         DEFAULT     [  0]    ***   
       SUBGRPAXIS           ISBXYZ         X           [  0]    ***   
       SYMMETRY             ISYM           ON          [  0]    ***   
       SYM_CHECK            ISYMCK         OVERRIDE    [  1]    ***   
       T3_EXTRAPOL          IT3EXT         OFF         [  0]    ***   
       T4_EXTRAPOL          IT4EXP         OFF         [  0]    ***   
       TAMP_SUM             IEVERY              5               ***   
       TESTSUITE            ITESTS         OFF         [  0]    ***   
       THERMOCH             ITHERM         OFF         [  0]    ***   
       TOL_CHOLESK          ITOLCH          10D-  4             ***   
       TRANGRAD             IRESRM         OFF         [  0]    ***   
       TRANS_INV            ITRAIN         USE         [  0]    ***   
       TREAT_PERT           ITREAT         SIMULTANEOUS[  0]    ***   
       TRIP_ALGORI          ITRALG         NORMAL      [  0]    ***   
       UIJ_THRESHO          IUIJTH              1               ***   
       UNITS                IUNITS         BOHR        [  1]    ***   
       UNOS                 IUNOS          OFF         [  0]    ***   
       UPDATE_HESS          IHUPDT         ON          [  1]    ***   
       VIBPHASE             ISETPH         STANDARD    [  0]    ***   
       VIBRATION            IVIB           NO          [  0]    ***   
       VIB_ALGORIT          IGEALG         STANDARD    [  0]    ***   
       VNATORB              IVNORB         OFF         [  0]    ***   
       VTRAN                IVTRAN         FULL/PARTIAL[  0]    ***   
       XFIELD               IXEFLD              0             x 10-6  
       XFORM_TOL            IXFTOL          10D- 11             ***   
       YFIELD               IYEFLD              0             x 10-6  
       ZFIELD               IZEFLD              0             x 10-6  
       ZSCALE_EXP           IZEXPS         OFF         [  0]    ***   
    -------------------------------------------------------------------
  @GETXYZ-I,     2 atoms read from ZMAT.
   Rotational constants (in cm-1): 
          1.5028196650             1.5028196650
   Rotational constants (in MHz): 
      45053.4064417322         45053.4064417322
********************************************************************************
   The full molecular point group is CXv .
   The largest Abelian subgroup of the full molecular point group is C2v .
   The computational point group is C2v .
********************************************************************************


 ----------------------------------------------------------------
         Coordinates used in calculation (QCOMP) 
 ----------------------------------------------------------------
 Z-matrix   Atomic            Coordinates (in bohr)
  Symbol    Number           X              Y              Z
 ----------------------------------------------------------------
     B         5        -0.00000000     0.00000000     1.51777004
     F         9         0.00000000     0.00000000    -0.87952622
 ----------------------------------------------------------------
 
   Interatomic distance matrix (Angstroms) 
 
                 B             F    
                [ 1]        [ 2]
  B    [ 1]     0.00000
  F    [ 2]     1.26859     0.00000
 rotcon2
   Rotational constants (in cm-1): 
          1.5028196650             0.0000000000
   Rotational constants (in MHz): 
      45053.4064417322             0.0000000000
  There are   2 frozen-core orbitals.
  There are   46 basis functions.
 @GEOPT-W, Archive file not created for single-point calculation.
 @CHECKOUT-I, Total execution time (CPU/WALL):        0.17/       1.58 seconds.
--executable xjoda finished with status     0 in        2.21 seconds (walltime).
 --invoking executable--
/home/CEISAM/blondel-a/soft/cfour2.1/cfour2.1-serial-mkl/bin/xvmol
 SERIAL VERSION OF MOLECULE STARTED
********************************************************************************
                    INPUT FROM MOL FILE
********************************************************************************
INTGRL        1    0    1    0    0    0    0    0    0                         
         *** CFOUR Program System (Release V0.1) ***                            
Ketene -GS                                                                      
    2    2 X  Y       0.10E-08              0    0                              
   9999.00      3.00                                                            
          5.00000000    1    3    1    1    1                                   
B #1  -0.000000000000000   0.000000000000000   1.517770036077388                
   10    4                                                                      
   4570.00000000000       6.960000000000000E-004 -1.390000000000000E-004        
  0.000000000000000E+000  0.000000000000000E+000                                
   685.900000000000       5.353000000000000E-003 -1.097000000000000E-003        
  0.000000000000000E+000  0.000000000000000E+000                                
   156.500000000000       2.713400000000000E-002 -5.444000000000000E-003        
  0.000000000000000E+000  0.000000000000000E+000                                
   44.4700000000000       0.101380000000000      -2.191600000000000E-002        
  0.000000000000000E+000  0.000000000000000E+000                                
   14.4800000000000       0.272055000000000      -5.975100000000000E-002        
  0.000000000000000E+000  0.000000000000000E+000                                
   5.13100000000000       0.448403000000000      -0.138732000000000             
  0.000000000000000E+000  0.000000000000000E+000                                
   1.89800000000000       0.290123000000000      -0.131482000000000             
  0.000000000000000E+000  0.000000000000000E+000                                
  0.332900000000000       1.432200000000000E-002  0.539526000000000             
  0.000000000000000E+000  0.000000000000000E+000                                
  0.104300000000000      -3.486000000000000E-003  0.580774000000000             
   1.00000000000000       0.000000000000000E+000                                
  3.105000000000000E-002  0.000000000000000E+000  0.000000000000000E+000        
  0.000000000000000E+000   1.00000000000000                                     
    5    3                                                                      
   6.00100000000000       3.548100000000000E-002  0.000000000000000E+000        
  0.000000000000000E+000                                                        
   1.24100000000000       0.198072000000000       0.000000000000000E+000        
  0.000000000000000E+000                                                        
  0.336400000000000       0.505230000000000       0.000000000000000E+000        
  0.000000000000000E+000                                                        
  9.538000000000001E-002  0.479499000000000        1.00000000000000             
  0.000000000000000E+000                                                        
  2.378000000000000E-002  0.000000000000000E+000  0.000000000000000E+000        
   1.00000000000000                                                             
    2    2                                                                      
  0.343000000000000        1.00000000000000       0.000000000000000E+000        
  9.039999999999999E-002  0.000000000000000E+000   1.00000000000000             
          9.00000000    1    3    1    1    1                                   
F #2   0.000000000000000   0.000000000000000  -0.879526224422612                
   10    4                                                                      
   14710.0000000000       7.210000000000000E-004 -1.650000000000000E-004        
  0.000000000000000E+000  0.000000000000000E+000                                
   2207.00000000000       5.553000000000000E-003 -1.308000000000000E-003        
  0.000000000000000E+000  0.000000000000000E+000                                
   502.800000000000       2.826700000000000E-002 -6.495000000000000E-003        
  0.000000000000000E+000  0.000000000000000E+000                                
   142.600000000000       0.106444000000000      -2.669100000000000E-002        
  0.000000000000000E+000  0.000000000000000E+000                                
   46.4700000000000       0.286814000000000      -7.369000000000001E-002        
  0.000000000000000E+000  0.000000000000000E+000                                
   16.7000000000000       0.448641000000000      -0.170776000000000             
  0.000000000000000E+000  0.000000000000000E+000                                
   6.35600000000000       0.264761000000000      -0.112327000000000             
  0.000000000000000E+000  0.000000000000000E+000                                
   1.31600000000000       1.533300000000000E-002  0.562814000000000             
  0.000000000000000E+000  0.000000000000000E+000                                
  0.389700000000000      -2.332000000000000E-003  0.568778000000000             
   1.00000000000000       0.000000000000000E+000                                
  9.863000000000000E-002  0.000000000000000E+000  0.000000000000000E+000        
  0.000000000000000E+000   1.00000000000000                                     
    5    3                                                                      
   22.6700000000000       4.487800000000000E-002  0.000000000000000E+000        
  0.000000000000000E+000                                                        
   4.97700000000000       0.235718000000000       0.000000000000000E+000        
  0.000000000000000E+000                                                        
   1.34700000000000       0.508521000000000       0.000000000000000E+000        
  0.000000000000000E+000                                                        
  0.347100000000000       0.458120000000000        1.00000000000000             
  0.000000000000000E+000                                                        
  8.502000000000000E-002  0.000000000000000E+000  0.000000000000000E+000        
   1.00000000000000                                                             
    2    2                                                                      
   1.64000000000000        1.00000000000000       0.000000000000000E+000        
  0.464000000000000       0.000000000000000E+000   1.00000000000000             
FINISH                                                                          
 
********************************************************************************
 ONE- AND TWO-ELECTRON INTEGRALS OVER SYMMETRY-ADAPTED AOS ARE CALCULATED.

  SPHERICAL HARMONICS ARE USED.
  
  INTEGRALS LESS THAN  0.10E-13 ARE NEGLECTED.

  NUCLEAR REPULSION ENERGY :   18.7711467879 A.U.
  @MOLECU-I, ONE ELECTRON INTEGRALS (CPU/WALL):        0.03/       0.06 SECONDS.
  @TWOEL-I,      20634 INTEGRALS OF SYMMETRY TYPE  I I I I
  @TWOEL-I,      54522 INTEGRALS OF SYMMETRY TYPE  I J I J
  @TWOEL-I,      31497 INTEGRALS OF SYMMETRY TYPE  I I J J
  @TWOEL-I,      23276 INTEGRALS OF SYMMETRY TYPE  I J K L
  @TWOEL-I, TOTAL NUMBER OF 2-E INTEGRALS     129929.
  @MOLECU-I, TWO ELECTRON INTEGRALS (CPU/WALL):        0.60/       0.17 SECONDS.
 @CHECKOUT-I, Total execution time (CPU/WALL):        0.64/       0.25 seconds.

Running with 20 threads/proc

--executable xvmol finished with status     0 in        3.98 seconds (walltime).
 --invoking executable--
/home/CEISAM/blondel-a/soft/cfour2.1/cfour2.1-serial-mkl/bin/xvmol2ja
 @GETMEM-I,  Allocated  238418 MB of main memory.
 @CHECKOUT-I, Total execution time (CPU/WALL):        0.03/       0.06 seconds.
--executable xvmol2ja finished with status     0 in        0.63 seconds (walltime).
 --invoking executable--
/home/CEISAM/blondel-a/soft/cfour2.1/cfour2.1-serial-mkl/bin/xvscf
  There are   46 functions in the AO basis.

  There are 4 irreducible representations.

       Irrep        # of functions
         1                 22
         2                 10
         3                 10
         4                  4


  Parameters for SCF calculation: 
        SCF reference function:  RHF  
  Maximum number of iterations:  150
     Full symmetry point group: CXv 
     Computational point group: C2v 
        Initial density matrix: MOREAD                 
     SCF convergence tolerance: 10**(- 8)
  DIIS convergence acceleration:  ON
          Latest start for DIIS:   8
                     DIIS order:   6

  Memory information:     124718 words required.
  Fock matrices are constructed from AO integral file.
 @GETMEM-I,  Allocated       0 MB of main memory.
  Initialization and symmetry analysis required      0.003 seconds.

  @INITGES-I, Occupancies from core Hamiltonian:

          Alpha population by irrep:   5    1    1    0
           Beta population by irrep:   5    1    1    0


 total no. of electrons in initial guess :  0.000000000000000E+000
  --------------------------------------------------------------------
  Iteration         Total Energy            Largest Density Difference
  --------------------------------------------------------------------
       0            18.771146787929510              0.0000000000D+00
   current occupation vector 
     5  1  1  0
     5  1  1  0
       1          -114.717582305918270              0.1069335684D+02
   current occupation vector 
     5  1  1  0
     5  1  1  0
       2          -106.231676720448164              0.1043804716D+02
   current occupation vector 
     5  1  1  0
     5  1  1  0
       3          -117.429348881201449              0.1062471041D+02
   current occupation vector 
     5  1  1  0
     5  1  1  0
       4          -107.868301510188189              0.9545880611D+01
   current occupation vector 
     5  1  1  0
     5  1  1  0
       5          -117.471605136673261              0.1092418915D+02
   current occupation vector 
     5  1  1  0
     5  1  1  0
       6          -108.282292227918830              0.1093901422D+02
   current occupation vector 
     5  1  1  0
     5  1  1  0
       7          -116.780441283007903              0.1157386728D+02
   current occupation vector 
     5  1  1  0
     5  1  1  0
       8          -108.559062300586646              0.1154305583D+02
   current occupation vector 
     5  1  1  0
     5  1  1  0
       9          -123.212725272474884              0.2639522095D+01
   current occupation vector 
     5  1  1  0
     5  1  1  0
      10          -123.809281693177084              0.6384497342D+00
   current occupation vector 
     5  1  1  0
     5  1  1  0
      11          -124.098439763082311              0.4205532108D+00
   current occupation vector 
     5  1  1  0
     5  1  1  0
      12          -124.114903558798787              0.1249390889D+00
   current occupation vector 
     5  1  1  0
     5  1  1  0
      13          -124.114991557171706              0.1267519916D-01
   current occupation vector 
     5  1  1  0
     5  1  1  0
      14          -124.114994191777825              0.2184550276D-02
   current occupation vector 
     5  1  1  0
     5  1  1  0
      15          -124.114994275257047              0.5803652105D-03
   current occupation vector 
     5  1  1  0
     5  1  1  0
      16          -124.114994276697544              0.8224955243D-04
   current occupation vector 
     5  1  1  0
     5  1  1  0
      17          -124.114994276746145              0.1109356412D-04
   current occupation vector 
     5  1  1  0
     5  1  1  0
      18          -124.114994276747566              0.1978597575D-05
   current occupation vector 
     5  1  1  0
     5  1  1  0
      19          -124.114994276747879              0.5522031314D-06
   current occupation vector 
     5  1  1  0
     5  1  1  0
      20          -124.114994276747737              0.4148379487D-07
   current occupation vector 
     5  1  1  0
     5  1  1  0
      21          -124.114994276747595              0.1862788060D-07
   current occupation vector 
     5  1  1  0
     5  1  1  0

  SCF has converged.

 Density matrix saved to file den.dat
 total electron number:   14.0000000000001     
     E(SCF)=      -124.114994276747794              0.3704106410D-08

  Eigenvector printing suppressed.

 @PUTMOS-I, Writing converged MOs to NEWMOS. 
 @PUTMOS-I, Symmetry   1 Full Blocks  5 Partial Blocksize   2
 @PUTMOS-I, Symmetry   2 Full Blocks  2 Partial Blocksize   2
 @PUTMOS-I, Symmetry   3 Full Blocks  2 Partial Blocksize   2
 @PUTMOS-I, Symmetry   4 Full Blocks  1 Partial Blocksize   0
 @PUTFOCK-I, Writing converged Fock matrix to NEWFOCK. 
 @PUTFOCK-I, Symmetry   1 Full Blocks  5 Partial Blocksize   2
 @PUTFOCK-I, Symmetry   2 Full Blocks  2 Partial Blocksize   2
 @PUTFOCK-I, Symmetry   3 Full Blocks  2 Partial Blocksize   2
 @PUTFOCK-I, Symmetry   4 Full Blocks  1 Partial Blocksize   0


 
  ORBITAL EIGENVALUES (ALPHA)  (1H = 27.2113834 eV)

       MO #        E(hartree)               E(eV)           FULLSYM    COMPSYM
       ----   --------------------   --------------------   -------   ---------
    1     1         -26.3891495513        -718.0852660399     SG+        A1 (1)
    2     2          -7.7263109261        -210.2436088783     SG+        A1 (1)
    3     3          -1.7066483053         -46.4402613644     SG+        A1 (1)
    4     4          -0.8581587106         -23.3516856924     SG+        A1 (1)
    5    33          -0.7462896409         -20.3075735455      PI        B2 (3)
    6    23          -0.7462896409         -20.3075735455      PI        B1 (2)
    7     5          -0.4062927488         -11.0557877597     SG+        A1 (1)
  +++++++++++++++++++++++++++++++++++++++++++++++++++++++++++++++++++++++++++++
    8    34           0.0442184811           1.2032460435      PI        B2 (3)
    9    24           0.0442184811           1.2032460435      PI        B1 (2)
   10     6           0.0554274350           1.5082571847     SG+        A1 (1)
   11     7           0.0737171468           2.0059455437     SG+        A1 (1)
   12    35           0.1297866659           3.5316747269      PI        B2 (3)
   13    25           0.1297866659           3.5316747269      PI        B1 (2)
   14     8           0.2308341816           6.2813174160     SG+        A1 (1)
   15     9           0.2607035681           7.0941047461     SG+        A1 (1)
   16    36           0.2721170082           7.4046802392      PI        B2 (3)
   17    26           0.2721170082           7.4046802392      PI        B1 (2)
   18    10           0.2733914469           7.4393594790      DE        A1 (1)
   19    43           0.2733914469           7.4393594790      DE        A2 (4)
   20    37           0.3704416170          10.0802288686      PI        B2 (3)
   21    27           0.3704416170          10.0802288686      PI        B1 (2)
   22    11           0.4099183829          11.1544462799     SG+        A1 (1)
   23    12           0.4627833407          12.5929749153     SG+        A1 (1)
   24    38           0.5663155584          15.4102297857      PI        B2 (3)
   25    28           0.5663155584          15.4102297857      PI        B1 (2)
   26    13           0.7140570182          19.4304792927     SG+        A1 (1)
   27    14           0.9967832551          27.1238513205     SG+        A1 (1)
   28    15           1.0160798073          27.6489372018      DE        A1 (1)
   29    44           1.0160798073          27.6489372018      DE        A2 (4)
   30    39           1.1394304117          31.0054777915      PI        B2 (3)
   31    29           1.1394304117          31.0054777915      PI        B1 (2)
   32    16           1.3884668629          37.7821041443      DE        A1 (1)
   33    45           1.3884668629          37.7821041443      DE        A2 (4)
   34    17           1.4320005632          38.9667163532     SG+        A1 (1)
   35    40           1.5615985488          42.4932568275      PI        B2 (3)
   36    30           1.5615985488          42.4932568275      PI        B1 (2)
   37    18           1.7380708586          47.2953125108     SG+        A1 (1)
   38    31           1.9257115713          52.4012758852      PI        B1 (2)
   39    41           1.9257115713          52.4012758852      PI        B2 (3)
   40    19           2.1346891668          58.0878453579     SG+        A1 (1)
   41    20           3.5964332072          97.8639228743     SG+        A1 (1)
   42    21           4.8039327089         130.7216547705      DE        A1 (1)
   43    46           4.8039327089         130.7216547705      DE        A2 (4)
   44    42           4.9216575194         133.9251097234      PI        B2 (3)
   45    32           4.9216575194         133.9251097234      PI        B1 (2)
   46    22           4.9673382341         135.1681451657     SG+        A1 (1)


  VSCF finished.

 @CHECKOUT-I, Total execution time (CPU/WALL):        0.11/       0.41 seconds.
--executable xvscf finished with status     0 in        0.99 seconds (walltime).
 --invoking executable--
/home/CEISAM/blondel-a/soft/cfour2.1/cfour2.1-serial-mkl/bin/xvtran
 @GETMEM-I,  Allocated  238418 MB of main memory.
  Full RHF integral transformation
  The following   2 MOs will be dropped:
    1  2
  There are  44 active molecular orbitals.
  Transformation of IIII integrals :
  1 pass through the AO integral file was required.
       20634 AO integrals were read.
       22348 MO integrals were written to HF2.
  Transformation of IIJJ integrals :
  1 pass through the AO integral file was required.
       31497 AO integrals were read.
       29175 MO integrals were written to HF2.
  Transformation of IJIJ integrals :
  1 pass through the AO integral file was required.
       54522 AO integrals were read.
       49469 MO integrals were written to HF2.
  Transformation of IJKL integrals :
  1 pass through the AO integral file was required.
       23276 AO integrals were read.
       22738 MO integrals were written to HF2.
  Summary of active molecular orbitals: 
------------------------------------------------------------------------
 
  Index      Eigenvalue    Symmetry    Index      Eigenvalue    Symmetry
------------------------------------------------------------------------
     1        -1.7066483        1        23         0.0442185        2
     2        -0.8581587        1        24         0.1297867        2
     3        -0.4062927        1        25         0.2721170        2
     4        -0.7462896        2        26         0.3704416        2
     5        -0.7462896        3        27         0.5663156        2
     6         0.0554274        1        28         1.1394304        2
     7         0.0737171        1        29         1.5615985        2
     8         0.2308342        1        30         1.9257116        2
     9         0.2607036        1        31         4.9216575        2
    10         0.2733914        1        32         0.0442185        3
    11         0.4099184        1        33         0.1297867        3
    12         0.4627833        1        34         0.2721170        3
    13         0.7140570        1        35         0.3704416        3
    14         0.9967833        1        36         0.5663156        3
    15         1.0160798        1        37         1.1394304        3
    16         1.3884669        1        38         1.5615985        3
    17         1.4320006        1        39         1.9257116        3
    18         1.7380709        1        40         4.9216575        3
    19         2.1346892        1        41         0.2733914        4
    20         3.5964332        1        42         1.0160798        4
    21         4.8039327        1        43         1.3884669        4
    22         4.9673382        1        44         4.8039327        4
------------------------------------------------------------------------
  -1.70664830529540      -0.858158710606392      -0.406292748779765     
 -0.746289640883664      -0.746289640883668       5.542743500154623E-002
  7.371714676323413E-002  0.230834181550701       0.260703568127325     
  0.273391446869042       0.409918382904479       0.462783340713068     
  0.714057018236204       0.996783255073624        1.01607980731226     
   1.38846686289005        1.43200056316116        1.73807085863965     
   2.13468916681137        3.59643320722629        4.80393270892893     
   4.96733823410335       4.421848113485254E-002  0.129786665931533     
  0.272117008177860       0.370441617039063       0.566315558424058     
   1.13943041174010        1.56159854877000        1.92571157132832     
   4.92165751938208       4.421848113485091E-002  0.129786665931532     
  0.272117008177856       0.370441617039049       0.566315558424050     
   1.13943041174009        1.56159854877000        1.92571157132833     
   4.92165751938207       0.273391446869045        1.01607980731227     
   1.38846686289006        4.80393270892897     
 @CHECKOUT-I, Total execution time (CPU/WALL):        0.07/       0.14 seconds.
--executable xvtran finished with status     0 in        0.71 seconds (walltime).
 --invoking executable--
/home/CEISAM/blondel-a/soft/cfour2.1/cfour2.1-serial-mkl/bin/xintprc
 @GETMEM-I,  Allocated  238418 MB of main memory.
  @GMOIAA-I, Processing MO integrals for spin case AA.
  @GMOIAA-I, Generation of integral list completed.
                      TYPE                NUMBER
                      ----               --------
                      PPPP                 75890
                      PPPH                 38576
                      PPHH                  5097
                      PHPH                  3256
                      PHHH                   862
                      HHHH                    49

                     TOTAL                123730

  @FORMT2-I, Second-order MP correlation energies:
            ------------------------------------------------
            E(SCF)                  =   -124.114994276748 a.u.
            E2(AA)                  =     -0.033886932019 a.u.
            E2(AB)                  =     -0.197305181984 a.u.
            E2(TOT)                 =     -0.265079046023 a.u.
            Total MP2 energy        =   -124.380073322771 a.u.
            ------------------------------------------------
   Largest T2 amplitudes for spin case AB:
       _       _                 _       _                 _       _
   i   j   a   b             i   j   a   b             i   j   a   b
-----------------------------------------------------------------------------
[  3   3  24  24]-0.05158 [  3   3  33  33]-0.05158 [  3   3  13  13]-0.02833
[  3   3  33  32]-0.02728 [  3   3  32  33]-0.02728 [  3   3  24  23]-0.02728
[  3   3  23  24]-0.02728 [  4   4  29  29]-0.02246 [  5   5  38  38]-0.02246
[  3   3  11  11]-0.01879 [  2   2  13  13]-0.01871 [  2   2  18  18]-0.01789
[  5   4  38  29]-0.01729 [  4   5  29  38]-0.01729 [  4   4  24  24]-0.01728
-----------------------------------------------------------------------------
   Norm of T2AB vector (    10269 symmetry allowed elements):  0.2391221866.
-----------------------------------------------------------------------------
 @CHECKOUT-I, Total execution time (CPU/WALL):        0.32/       0.17 seconds.
--executable xintprc finished with status     0 in        0.74 seconds (walltime).
  calling xvcc 
 --invoking executable--
/home/CEISAM/blondel-a/soft/cfour2.1/cfour2.1-serial-mkl/bin/xvcc
 @GETMEM-I,  Allocated  238418 MB of main memory.
   CC2 energy will be calculated.
   The total correlation energy is -0.265079046023 a.u.
   The total correlation energy is -0.264625867724 a.u.
  Convergence information after     1 iterations: 
  Largest element of residual vector :  0.21611832E-01.
  Largest element of DIIS residual   :  0.21611832E-01.
   The total correlation energy is -0.268599526602 a.u.
  Convergence information after     2 iterations: 
  Largest element of residual vector : -0.30319181E-02.
  Largest element of DIIS residual   :  0.30560613E-02.
   The total correlation energy is -0.268838484951 a.u.
  Convergence information after     3 iterations: 
  Largest element of residual vector :  0.52497843E-02.
  Largest element of DIIS residual   : -0.14427864E-02.
   The total correlation energy is -0.270031516123 a.u.
  Convergence information after     4 iterations: 
  Largest element of residual vector :  0.39575039E-03.
  Largest element of DIIS residual   :  0.20601555E-03.
   The total correlation energy is -0.270096752196 a.u.
  Convergence information after     5 iterations: 
  Largest element of residual vector :  0.19550643E-03.
  Largest element of DIIS residual   :  0.89224813E-04.
   The total correlation energy is -0.270096773480 a.u.
  Convergence information after     6 iterations: 
  Largest element of residual vector :  0.32595487E-04.
  Largest element of DIIS residual   : -0.15312019E-04.
   The total correlation energy is -0.270099486021 a.u.
  Convergence information after     7 iterations: 
  Largest element of residual vector :  0.10821118E-04.
  Largest element of DIIS residual   :  0.56324216E-05.
   The total correlation energy is -0.270099964896 a.u.
  Convergence information after     8 iterations: 
  Largest element of residual vector :  0.29674581E-05.
  Largest element of DIIS residual   : -0.17083968E-05.
   The total correlation energy is -0.270100157174 a.u.
  Convergence information after     9 iterations: 
  Largest element of residual vector : -0.73715519E-06.
  Largest element of DIIS residual   : -0.48817718E-06.
   The total correlation energy is -0.270100224144 a.u.
  Convergence information after    10 iterations: 
  Largest element of residual vector :  0.23284334E-06.
  Largest element of DIIS residual   :  0.16512728E-06.
   The total correlation energy is -0.270100227808 a.u.
  Convergence information after    11 iterations: 
  Largest element of residual vector :  0.10332398E-06.
  Largest element of DIIS residual   :  0.92902748E-07.
   The total correlation energy is -0.270100239828 a.u.
  Convergence information after    12 iterations: 
  Largest element of residual vector :  0.34849086E-07.
  Largest element of DIIS residual   :  0.13620581E-07.
  Amplitude equations converged in    12iterations.
   The total correlation energy is -0.270100242587 a.u.
   The CC iterations have converged.

   Largest T1 amplitudes for spin case AA:
   i       a                 i       a                 i       a    
-----------------------------------------------------------------------------
[  5      33    ] 0.03373 [  4      24    ] 0.03373 [  5      32    ] 0.02179
[  4      23    ] 0.02179 [  3       9    ] 0.01207 [  5      35    ] 0.01085
[  4      26    ] 0.01085 [  5      36    ] 0.00931 [  4      27    ] 0.00931
[  4      25    ]-0.00929 [  5      34    ]-0.00929 [  2      13    ] 0.00889
[  2      11    ] 0.00870 [  3       6    ] 0.00786 [  3      13    ] 0.00620
-----------------------------------------------------------------------------
   Norm of T1AA vector (       69 symmetry allowed elements):  0.0664385826.
-----------------------------------------------------------------------------
   Largest T2 amplitudes for spin case AB:
       _       _                 _       _                 _       _
   i   j   a   b             i   j   a   b             i   j   a   b
-----------------------------------------------------------------------------
[  3   3  24  24]-0.05120 [  3   3  33  33]-0.05120 [  3   3  13  13]-0.02852
[  3   3  33  32]-0.02705 [  3   3  32  33]-0.02705 [  3   3  24  23]-0.02705
[  3   3  23  24]-0.02705 [  4   4  24  24]-0.02219 [  5   5  33  33]-0.02219
[  4   4  29  29]-0.02180 [  5   5  38  38]-0.02180 [  2   2  13  13]-0.01932
[  3   3  11  11]-0.01864 [  5   4  33  24]-0.01803 [  4   5  24  33]-0.01803
-----------------------------------------------------------------------------
   Norm of T2AB vector (    10269 symmetry allowed elements):  0.2477847073.
-----------------------------------------------------------------------------
       Summary of iterative solution of CC equations 
      -----------------------------------------------------------
                       Correlation           Total
       Iteration         Energy              Energy
      -----------------------------------------------------------
            0        -0.265079046023    -124.380073322771  DIIS 
            1        -0.264625867724    -124.379620144471  DIIS 
            2        -0.268599526602    -124.383593803350  DIIS 
            3        -0.268838484951    -124.383832761698  DIIS 
            4        -0.270031516123    -124.385025792871  DIIS 
            5        -0.270096752196    -124.385091028944  DIIS 
            6        -0.270096773480    -124.385091050228  DIIS 
            7        -0.270099486021    -124.385093762769  DIIS 
            8        -0.270099964896    -124.385094241644  DIIS 
            9        -0.270100157174    -124.385094433922  DIIS 
           10        -0.270100224144    -124.385094500891  DIIS 
           11        -0.270100227808    -124.385094504556  DIIS 
           12        -0.270100242587    -124.385094519334  DIIS 
      -----------------------------------------------------------
      A miracle has come to pass. The CC iterations have converged.
      The reference energy is      -124.11499427674779 a.u.
      The correlation energy is      -0.27010024258667 a.u.
      The total energy is          -124.38509451933446 a.u.
 @CHECKOUT-I, Total execution time (CPU/WALL):        3.49/       0.24 seconds.
--executable xvcc finished with status     0 in        0.82 seconds (walltime).
 --invoking executable--
/home/CEISAM/blondel-a/soft/cfour2.1/cfour2.1-serial-mkl/bin/xlambda
 @GETMEM-I,  Allocated  238418 MB of main memory.
 Hbar is calculated for a CC2 wave function.
 Calculation of Hbar completed.
 @CHECKOUT-I, Total execution time (CPU/WALL):        0.89/       0.12 seconds.
--executable xlambda finished with status     0 in        0.70 seconds (walltime).
 --invoking executable--
/home/CEISAM/blondel-a/soft/cfour2.1/cfour2.1-serial-mkl/bin/xvee
 @GETMEM-I,  Allocated  238418 MB of main memory.
  cc2 and ccprog  T                     0
  EOMEE-CC2 excitation energies will be evaluated.
  @SETMET-I, VPROP property integrals are used.
  @SETMET-I, A total of   1 target states will be studied.
  Summary of active alpha molecular orbitals:
------------------------------------------------------------------------------
Orbital      Sym   Eigenvalue  <xx>     <yy>     <zz>     <xy>     <xz>     <yz>
        SCF
  #  position
------------------------------------------------------------------------------
   1      3    1      -1.7066   0.000    0.000    0.000    0.000    0.000    0.000
   2      4    1      -0.8582   0.000    0.000    0.000    0.000    0.000    0.000
   3      7    1      -0.4063   0.000    0.000    0.000    0.000    0.000    0.000
   4      6    2      -0.7463   0.000    0.000    0.000    0.000    0.000    0.000
   5      5    3      -0.7463   0.000    0.000    0.000    0.000    0.000    0.000
   6     10    1       0.0554   0.000    0.000    0.000    0.000    0.000    0.000
   7     11    1       0.0737   0.000    0.000    0.000    0.000    0.000    0.000
   8     14    1       0.2308   0.000    0.000    0.000    0.000    0.000    0.000
   9     15    1       0.2607   0.000    0.000    0.000    0.000    0.000    0.000
  10     18    1       0.2734   0.000    0.000    0.000    0.000    0.000    0.000
  11     22    1       0.4099   0.000    0.000    0.000    0.000    0.000    0.000
  12     23    1       0.4628   0.000    0.000    0.000    0.000    0.000    0.000
  13     26    1       0.7141   0.000    0.000    0.000    0.000    0.000    0.000
  14     27    1       0.9968   0.000    0.000    0.000    0.000    0.000    0.000
  15     28    1       1.0161   0.000    0.000    0.000    0.000    0.000    0.000
  16     32    1       1.3885   0.000    0.000    0.000    0.000    0.000    0.000
  17     34    1       1.4320   0.000    0.000    0.000    0.000    0.000    0.000
  18     37    1       1.7381   0.000    0.000    0.000    0.000    0.000    0.000
  19     40    1       2.1347   0.000    0.000    0.000    0.000    0.000    0.000
  20     41    1       3.5964   0.000    0.000    0.000    0.000    0.000    0.000
  21     42    1       4.8039   0.000    0.000    0.000    0.000    0.000    0.000
  22     46    1       4.9673   0.000    0.000    0.000    0.000    0.000    0.000
  23      9    2       0.0442   0.000    0.000    0.000    0.000    0.000    0.000
  24     13    2       0.1298   0.000    0.000    0.000    0.000    0.000    0.000
  25     17    2       0.2721   0.000    0.000    0.000    0.000    0.000    0.000
  26     21    2       0.3704   0.000    0.000    0.000    0.000    0.000    0.000
  27     25    2       0.5663   0.000    0.000    0.000    0.000    0.000    0.000
  28     31    2       1.1394   0.000    0.000    0.000    0.000    0.000    0.000
  29     36    2       1.5616   0.000    0.000    0.000    0.000    0.000    0.000
  30     38    2       1.9257   0.000    0.000    0.000    0.000    0.000    0.000
  31     45    2       4.9217   0.000    0.000    0.000    0.000    0.000    0.000
  32      8    3       0.0442   0.000    0.000    0.000    0.000    0.000    0.000
  33     12    3       0.1298   0.000    0.000    0.000    0.000    0.000    0.000
  34     16    3       0.2721   0.000    0.000    0.000    0.000    0.000    0.000
  35     20    3       0.3704   0.000    0.000    0.000    0.000    0.000    0.000
  36     24    3       0.5663   0.000    0.000    0.000    0.000    0.000    0.000
  37     30    3       1.1394   0.000    0.000    0.000    0.000    0.000    0.000
  38     35    3       1.5616   0.000    0.000    0.000    0.000    0.000    0.000
  39     39    3       1.9257   0.000    0.000    0.000    0.000    0.000    0.000
  40     44    3       4.9217   0.000    0.000    0.000    0.000    0.000    0.000
  41     19    4       0.2734   0.000    0.000    0.000    0.000    0.000    0.000
  42     29    4       1.0161   0.000    0.000    0.000    0.000    0.000    0.000
  43     33    4       1.3885   0.000    0.000    0.000    0.000    0.000    0.000
  44     43    4       4.8039   0.000    0.000    0.000    0.000    0.000    0.000
------------------------------------------------------------------------------
  @DRVTDA-I, Roots obtained by Davidson method.
  calling tda davidson                       4                     2
  after tda davidson                      4                     4
                     1                     1
  kroot is                      1
__________________________________________________________________________
    Tamm-Dancoff (CIS) Excitation Energies and Transition Moments

                Excitation         Transition Dipole         Oscillator
 Root  Symmetry  Energy         x           y           z     Strength
__________________________________________________________________________
   1       2    0.24141      0.0000      0.0000      0.0000  .00000000D+00
__________________________________________________________________________
 
__________________________________________________________________________
  TDA excitation ergy:             0.241405946257 a.u.    6.5690 eV
  Total TDA electronic energy:  -123.873588330491 a.u.
 
  Dominant contributions: 
  SCF eigenvalue ordering used in list below. 
--------------------------------------------------------------------------------
    I    j    A    b
--------------------------------------------------------------------------------
    7    0    9    0  -0.7133715776 AA  
    7    0   13    0  -0.6811495659 AA  
    7    0   25    0  -0.1053608030 AA  
    7    0   21    0  -0.0762954583 AA  
    4    0   13    0   0.0579873151 AA  
    4    0   21    0   0.0296376816 AA  
    4    0    9    0   0.0281424405 AA  
    4    0   31    0   0.0261375318 AA  
    7    0   31    0  -0.0246321758 AA  
    4    0   25    0   0.0243759122 AA  
    6    0   15    0   0.0228477039 AA  
    6    0   23    0   0.0198191153 AA  
    6    0   28    0  -0.0179398946 AA  
    5    0   29    0  -0.0179398946 AA  
    3    0   13    0   0.0147334411 AA  
--------------------------------------------------------------------------------
__________________________________________________________________________
  @DOEOMEE-I, Excitation energies computed by the EOMEE-CC2/CC2-LR method.
  @DOEOMEE-I, right-hand eigenvectors will be computed.
  Beginning symmetry block   2.   1 roots requested.
  @DOEOMEE-I, Matrix dimension for diagonalization:     9552
  Creating initial guess for root
________________________________________________________________________
            Subspace          Eigenvalue           
 Iteration  Dimension   (a.u.)         (eV)       Overlap      Residual
________________________________________________________________________
  @NEWGES-I, Using TDA initial guess.
  1   1  0.2912842616D+00  0.7926247720D+01  0.0000000000D+00  0.3585133471D+00
  2   2  0.2492160311D+00  0.6781512971D+01  0.9609180928D+00  0.5341495867D+00
  3   3  0.2404910073D+00  0.6544093004D+01  0.9795072183D+00  0.5779378847D-01
  4   4  0.2396037445D+00  0.6519949356D+01  0.9987869624D+00  0.1387410134D-01
  5   5  0.2392674842D+00  0.6510799247D+01  0.9996745702D+00  0.5537038746D-02
  6   6  0.2392208866D+00  0.6509531264D+01  0.9999779357D+00  0.1592379523D-02
  L-O-C-K-I-N-G O-N R-O-O-T 
  7   7  0.2392103631D+00  0.6509244903D+01  0.9999975727D+00  0.6236432054D-03
  8   8  0.2392109773D+00  0.6509261618D+01  0.9999997509D+00  0.1629975208D-03
  9   9  0.2392109796D+00  0.6509261680D+01  0.9999999849D+00  0.4293214874D-04
 10  10  0.2392108799D+00  0.6509258967D+01  0.9999999986D+00  0.1527415139D-04
 11  11  0.2392108178D+00  0.6509257277D+01  0.9999999998D+00  0.5144766449D-05
  Converged eigenvalue:   0.239210817810961       a.u.
   Total EOMEE-CC2 electronic energy     -124.145883701523502 a.u.
  Converged eigenvector 
  SCF eigenvalue ordering used in list below. 
--------------------------------------------------------------------------------
    I    j    A    b
--------------------------------------------------------------------------------
    7    0    9    0  -0.5043083474 AA  
    7    0   13    0  -0.4636488964 AA  
    7    0   25    0  -0.0625061525 AA  
    7    0   21    0  -0.0577352350 AA  
    4    0   13    0   0.0557613191 AA  
    4    0    9    0   0.0341598347 AA  
    7    7    9   26   0.0293052216 ABAB
    7    7   26    9   0.0293052216 ABAB
    7    7    9   11   0.0274096956 ABAB
    7    7   11    9   0.0274096956 ABAB
    7    7    9   14  -0.0264142147 ABAB
    7    7   14    9  -0.0264142147 ABAB
    7    7   13   26   0.0251040421 ABAB
    7    7   26   13   0.0251040421 ABAB
    7    7   19   12   0.0227143655 ABAB
--------------------------------------------------------------------------------
  Converged eigenvector, normalized to one 
  SCF eigenvalue ordering used in list below. 
--------------------------------------------------------------------------------
    I    j    A    b
--------------------------------------------------------------------------------
    7    0    9    0  -0.5043083474 AA  
    7    0   13    0  -0.4636488964 AA  
    7    0   25    0  -0.0625061525 AA  
    7    0   21    0  -0.0577352350 AA  
    4    0   13    0   0.0557613191 AA  
    4    0    9    0   0.0341598347 AA  
    7    7    9   26   0.0293052216 ABAB
    7    7   26    9   0.0293052216 ABAB
    7    7    9   11   0.0274096956 ABAB
    7    7   11    9   0.0274096956 ABAB
    7    7    9   14  -0.0264142147 ABAB
    7    7   14    9  -0.0264142147 ABAB
    7    7   13   26   0.0251040421 ABAB
    7    7   26   13   0.0251040421 ABAB
    7    7   19   12   0.0227143655 ABAB
--------------------------------------------------------------------------------

  Eigenvector is saved on CCRE_2_1  

  Solution of   1 roots required   11 iterations.
 @CHECKOUT-I, Total execution time (CPU/WALL):        1.30/       0.28 seconds.
--executable xvee finished with status     0 in        0.86 seconds (walltime).
  The final electronic energy is      -124.145883701523502 a.u. 
  This computation required                           12.39 seconds (walltime).
