 --invoking executable--
/home/CEISAM/blondel-a/soft/cfour2.1/cfour2.1-serial-mkl/bin/xjoda


   *************************************************************************
         <<<     CCCCCC     CCCCCC   |||     CCCCCC     CCCCCC   >>>
       <<<      CCC        CCC       |||    CCC        CCC         >>>
      <<<      CCC        CCC        |||   CCC        CCC            >>>
    <<<        CCC        CCC        |||   CCC        CCC              >>>
      <<<      CCC        CCC        |||   CCC        CCC            >>>
       <<<      CCC        CCC       |||    CCC        CCC         >>>
         <<<     CCCCCC     CCCCCC   |||     CCCCCC     CCCCCC   >>>
   *************************************************************************

     ****************************************************************
     * CFOUR Coupled-Cluster techniques for Computational Chemistry *
     ****************************************************************
 

   Department of Chemistry                Institut fuer Physikalische Chemie
   University of Florida                  Universitaet Mainz
   Gainesville, FL 32611, USA             D-55099 Mainz, Germany

   Department of Chemistry                Fakultaet fuer Chemie und Biowiss.
   Johns Hopkins University               Karlsruher Institut fuer Technologie
   Baltimore, MD 21218, USA               D-76131 Karlsruhe, Germany

   Department of Chemistry                Department of Physical Chemistry
   Southern Methodist University          Eotvos Lorand University
   Dallas, TX 75275, USA                  H-1053 Budapest, Hungary

 
                       Version 2.1
 
                     nazare097                                         
                     Thu Mar 18 20:23:10 CET 2021                      
                     integer*8 version is running
 
********************************************************************************
*                          Input from ZMAT file                                *
********************************************************************************
Ketene -GS                                                                      
B     0.0000000000            0.0000000000            0.0000000000              
H     0.0000000000            0.0000000000            2.3108969292              
                                                                                
*CFOUR(COORD=CARTESIAN,UNITS=BOHR                                               
       MEMORY=110,MEM_UNIT=GB,CC_PROG=NCC                                       
       FROZEN_CORE=1                                                            
       CALC=CCSD,BASIS=AUG-PVDZ                                                 
       SCF_CONV=8,CC_CONV=7,ESTATE_CONV=5,ESTATE_MAXCYC=120                     
       EXCITE=EOMEE,ESTATE_SYM=0/1/0/0)                                         
                                                                                
********************************************************************************
    -------------------------------------------------------------------
                    CFOUR Control Parameters 
    -------------------------------------------------------------------
        External           Internal           Value            Units
          Name               Name
    -------------------------------------------------------------------
       ABCDTYPE             IABCDT         STANDARD    [  0]    ***   
       ANHARMONIC           IANHAR         OFF         [  0]    ***   
       ANH_ALGORIT          IANALG         STANDARD    [  0]    ***   
       ANH_DERIVAT          IANDER         SECOND      [  1]    ***   
       ANH_MODE             ANHMOD         VIBRATION   [  0]    ***   
       ANH_STEPSIZ          ICUBST             50000          x 10-6  
       ANH_SYMMETR          IANHSM         ABELIAN     [  0]    ***   
       AO_LADDERS           IAOLAD         SINGLEPASS  [  1]    ***   
       AV_SCF               IAVSCF         OFF         [  0]    ***   
       BASIS                IBASIS         AUG-PVDZ    [ 33]    ***   
       BOTHVECTORS          BOTHVC         OFF         [  0]    ***   
       BOX_POTENT           IPIAB          OFF         [  0]    ***   
       BREIT                IBREIT         OFF         [  0]    ***   
       BRUCK_CONV           IBRTOL          10D-  4             ***   
       BRUECKNER            IBRKNR         OFF         [  0]    ***   
       BUFFERSIZE           IBUFFS              4096            ***   
       CACHE_RECS           ICHREC             10               ***   
       CALCLEVEL            ICLLVL         CCSD        [ 10]    ***   
       CCORBOPT             ICCORB         OFF         [  0]  x 0.01  
       CC_CONV              ICCCNV          10D-  7             ***   
       CC_EXPORDER          ICCEOR              5               ***   
       CC_EXTRAPOL          ICCEXT         DIIS        [  1]    ***   
       CC_GUESS             ICCGES         MP2         [  0]    ***   
       CC_MAXCYC            ICCCYC            100              cycles 
       CC_PROGRAM           ICCPRO         NCC         [  5]    ***   
       CHARGE               ICHRGE              0               ***   
       CHOLESKY             ICHOLE         OFF         [  0]    ***   
       CIS_CONV             ICISTL              5               ***   
       COMM_SIZE            IPSIZE            ***               ***   
       CONSTANT             ICONST         OLD         [  1]    ***   
       CONTINUUM            ICONTU         NONE        [  0]    ***   
       CONTRACTION          ICNTYP         GENERAL     [  1]    ***   
       COORDINATES          ICOORD         CARTESIAN   [  1]    ***   
       CPHF_CONVER          ICPHFT          10D- 16             ***   
       CPHF_MAXCYC          ICPHFC             64              cycles 
       CUBIC                ICUBIC         OFF         [  0]    ***   
       CURVILINEAR          ICURVY         OFF         [  0]    ***   
       DBOC                 IDBOC          OFF         [  0]    ***   
       DCT                  IDCT           OFF         [  0]    ***   
       DERIV_LEV            IDRLVL         ZERO        [  0]    ***   
       DEVMEM_SIZE          IDVMEM         *********           MByte  
       DIAG_MRCC            IEOMST          10D-  0             ***   
       DIFF_TYPE            IDIFTY         RELAXED     [  0]    ***   
       DIRECT               IDIRCT         OFF         [  0]    ***   
       DROPMO               IDRPMO      NONE         
       ECP                  IECP           OFF         [  0]    ***   
       EIGENVECTOR          IVEC                1               ***   
       EL_ANHARM            IELANH         OFF         [  0]    ***   
       EOMFOLLOW            IEOMSR         ENERGY      [  0]    ***   
       EOMIP                IEOMIP         OFF         [  0]    ***   
       EOMLEVEL             HBARFM         SAME        [  0]    ***   
       EOM_MRCC             IMRCCE         NEW         [  1]    ***   
       EOM_NONIT            EOMNON         OFF         [  0]    ***   
       EOM_NSING            IEOMSI          10D-  0             ***   
       EOM_NSTATES          IMRCCD         DAVIDSON    [  0]    ***   
       EOM_NTRIP            IEOMTR          10D-  0             ***   
       EOM_ORDER            IEXORD         ENERGY      [  0]    ***   
       EOM_PROPSTA          IEOMST              0               ***   
       ESTATE_CONV          IEXTOL          10D-  5             ***   
       ESTATE_DIAG          IEXDIG         ITERATIVE   [  0]    ***   
       ESTATE_LOCK          IESLOC         ON          [  1]    ***   
       ESTATE_MAXC          IEXMXC            120               ***   
       ESTATE_PROP          IEXPRP         OFF         [  0]    ***   
       ESTATE_SYM           IEXSYM   0,  1,  0,  0,
       EVAL_HESS            IRECAL              0            # of cyc.
       EXCITATION           IEXCIT              0               ***   
       EXCITE               IEXCIT         EOMEE       [  3]    ***   
       EXTERN_POT           IEXPOT         OFF         [  0]    ***   
       FCGRADNEW            IFCGNW         OFF         [  0]    ***   
       FC_FIELD             IFINFC              0             x 10-6  
       FD_CALTYPE           IFDCAL         GRADONLY    [  0]    ***   
       FD_PROJECT           IFDPRJ         OFF         [  1]    ***   
       FD_STEPSIZE          IDISFD              0            10-4 bohr
       FD_USEGROUP          IFDGRP         FULL        [  0]    ***   
       FILE_RECSIZ          IFLREC              4096           words  
       FINITE_PERT          IFIPER              0             x 10-6  
       FIXGEOM              IFIXGM         OFF         [  0]    ***   
       FOCK                 IFOCK          AO          [  1]    ***   
       FREQ_ALGORI          IVIALG         STANDARD    [  0]    ***   
       FROZEN_CORE          IFROCO         ON          [  1]    ***   
       GAMMA_ABCD           IGABCD         STORE       [  0]    ***   
       GAMMA_ABCI           IGABCI         STORE       [  0]    ***   
       GENBAS_1             IGNBS1              0               ***   
       GENBAS_2             IGNBS2              0               ***   
       GENBAS_3             IGNBS3              0               ***   
       GENBAS_4             IGNBS4              0               ***   
       GEO_CONV             ICONTL              5              H/bohr 
       GEO_MAXCYC           IOPTCY             50               ***   
       GEO_MAXSTEP          IMXSTP            300            millibohr
       GEO_METHOD           INR            SINGLE_POINT[  5]    ***   
       GIAO                 IGIAO          OFF         [  1]    ***   
       GIMIC                IGIMIC         OFF         [  0]    ***   
       GRID                 IGRID          OFF         [  0]    ***   
       GRID_ALGO            IGALGO         SERIAL      [  0]    ***   
       GUESS                IGUESS         MOREAD      [  0]    ***   
       HBAR                 IHBAR          ON          [  1]    ***   
       HESS_TYPE            IHESTP         SCF         [  0]    ***   
       HF2_FILE             IHF2Fl         USE         [  1]    ***   
       HFSTABILITY          ISTABL         OFF         [  0]    ***   
       INCORE               INCORE         OFF         [  0]    ***   
       INPUT_MRCC           IMRCC          ON          [  1]    ***   
       INTEGRALS            INTTYP         VMOL        [  1]    ***   
       JODA_PRINT           IJPRNT              0               ***   
       KEYWORD_OUT          IDMPKW         NO          [  0]    ***   
       LINDEP_TOL           ILINDP              8               ***   
       LINEQ_CONV           IZTACN          10D-  7           cycles  
       LINEQ_EXPOR          ILMAXD              5               ***   
       LINEQ_MAXCY          ILMAXC            100               ***   
       LINEQ_TYPE           ILTYPE         DIIS        [  1]    ***   
       LOCK_ORBOCC          ILOCOC         OFF         [  0]    ***   
       MEMORY_SIZE          IMEMSZ         *********           words  
       MEM_UNIT             IMEMU          GB          [  3]    ***   
       MRCC                 IMRCCC         OFF         [  0]    ***   
       MULTIPLICTY          IMULTP              1               ***   
       NACOUPLING           IVCOUP         OFF         [  0]    ***   
       NEGEVAL              IDIE           ABORT       [  0]    ***   
       NEWNORM              INEWNO         OFF         [  0]    ***   
       NON-HF               INONHF         OFF         [  0]    ***   
       NTOP_TAMP            ITOPT2             15               ***   
       NUC_MODEL            INUCMO         POINT       [  0]    ***   
       OCCUPATION           IOCCU   ESTIMATED BY SCF 
       OPEN-SHELL           IOPEN          SPIN-ORBITAL[  0]    ***   
       OPTVIB               IOPTVB         OFF         [  0]    ***   
       ORBITALS             IORBTP         STANDARD    [  0]    ***   
       PARALLEL             IPARAL         ON          [  1]    ***   
       PARA_INT             IPINTS         ON          [  1]    ***   
       PARA_PRINT           IPPRIN              0               ***   
       PERT_ORB             IPTORB         STANDARD    [  0]    ***   
       POINTS               IGRDFD              0               ***   
       PRINT                IPRNT               0               ***   
       PROPS                IPROPS         OFF         [  0]    ***   
       PROP_INTEGR          IINTYP         INTERNAL    [  0]    ***   
       PSI                  IPSI           OFF         [  0]    ***   
       QC_ALG               IQCALG         FLM         [  0]    ***   
       QC_LINALG            IQCLIN         TRIDIAG     [  2]    ***   
       QC_MAXCYC            IQCMAX          10D-100           cycles  
       QC_MAXSCFCY          IQCMSC          10D- 15           cycles  
       QC_RTRUST            IQCRTR          10D-  0           x 10-3  
       QC_SKIPSCF           IQCSKI         OFF         [  0]    ***   
       QC_START             IQCSTA          10D-  1             ***   
       QRHFGUESS            IQGUES         OFF         [  0]    ***   
       QUARTIC              IQUART         OFF         [  0]    ***   
       RAMAN_INT            IRAMIN         OFF         [  0]    ***   
       RAMAN_ORB            IRAMRE         UNRELAXED   [  0]    ***   
       RDO                  IRDOFM         OFF         [  0]    ***   
       REDUCE_REPR          REDREP         Ir          [  0]    ***   
       REFERENCE            IREFNC         RHF         [  0]    ***   
       RELATIVIST           IRELAT         OFF         [  0]    ***   
       RELAX_DENS           IRDENS         OFF         [  0]    ***   
       RESET_FLAGS          IRESET         OFF         [  0]    ***   
       RESTART_CC           ICCRES         OFF         [  0]    ***   
       ROT_EVEC             ROTVEC              0               ***   
       SAVE_INTS            ISVINT         OFF         [  0]    ***   
       SCALE_ON             ISTCRT              0               ***   
       SCF_CONV             ISCFCV          10D-  8             ***   
       SCF_DAMPING          IDAMP               0             x 10-3  
       SCF_EXPORDE          IRPPOR              6               ***   
       SCF_EXPSTAR          IRPPLS              8               ***   
       SCF_EXTRAPO          IRPP           ON          [  1]    ***   
       SCF_MAXCYC           ISCFCY            150              cycles 
       SCF_NOSTOP           ISCFST         OFF         [  0]    ***   
       SCF_PRINT            ISCFPR              0               ***   
       SCF_PROG             ISCFPR         SCF         [  0]    ***   
       SD_FIELD             IFINSD              0             x 10-6  
       SOPERT               IPERSO         OFF         [  0]    ***   
       SPHERICAL            IDFGHI         ON          [  1]    ***   
       SPINORBIT            ISOCAL         OFF         [  0]    ***   
       SPINROTATIO          ISRCON         OFF         [  0]    ***   
       SPIN_FLIP            ISPFLP         OFF         [  0]    ***   
       SPIN_ORBIT           ISPORB         OFF         [  0]    ***   
       SPIN_SCAL            ISCSMP         OFF         [  0]    ***   
       STEEPSCALE           ISTPSC              1000          x 10-3  
       SUBGROUP             ISUBGP         DEFAULT     [  0]    ***   
       SUBGRPAXIS           ISBXYZ         X           [  0]    ***   
       SYMMETRY             ISYM           ON          [  0]    ***   
       SYM_CHECK            ISYMCK         OVERRIDE    [  1]    ***   
       T3_EXTRAPOL          IT3EXT         OFF         [  0]    ***   
       T4_EXTRAPOL          IT4EXP         OFF         [  0]    ***   
       TAMP_SUM             IEVERY              5               ***   
       TESTSUITE            ITESTS         OFF         [  0]    ***   
       THERMOCH             ITHERM         OFF         [  0]    ***   
       TOL_CHOLESK          ITOLCH          10D-  4             ***   
       TRANGRAD             IRESRM         OFF         [  0]    ***   
       TRANS_INV            ITRAIN         USE         [  0]    ***   
       TREAT_PERT           ITREAT         SIMULTANEOUS[  0]    ***   
       TRIP_ALGORI          ITRALG         NORMAL      [  0]    ***   
       UIJ_THRESHO          IUIJTH              1               ***   
       UNITS                IUNITS         BOHR        [  1]    ***   
       UNOS                 IUNOS          OFF         [  0]    ***   
       UPDATE_HESS          IHUPDT         ON          [  1]    ***   
       VIBPHASE             ISETPH         STANDARD    [  0]    ***   
       VIBRATION            IVIB           NO          [  0]    ***   
       VIB_ALGORIT          IGEALG         STANDARD    [  0]    ***   
       VNATORB              IVNORB         OFF         [  0]    ***   
       VTRAN                IVTRAN         FULL/PARTIAL[  0]    ***   
       XFIELD               IXEFLD              0             x 10-6  
       XFORM_TOL            IXFTOL          10D- 11             ***   
       YFIELD               IYEFLD              0             x 10-6  
       ZFIELD               IZEFLD              0             x 10-6  
       ZSCALE_EXP           IZEXPS         OFF         [  0]    ***   
    -------------------------------------------------------------------
  @GETXYZ-I,     2 atoms read from ZMAT.
   Rotational constants (in cm-1): 
         12.2092513282            12.2092513282
   Rotational constants (in MHz): 
     366024.1978801875        366024.1978801875
********************************************************************************
   The full molecular point group is CXv .
   The largest Abelian subgroup of the full molecular point group is C2v .
   The computational point group is C2v .
********************************************************************************


 ----------------------------------------------------------------
         Coordinates used in calculation (QCOMP) 
 ----------------------------------------------------------------
 Z-matrix   Atomic            Coordinates (in bohr)
  Symbol    Number           X              Y              Z
 ----------------------------------------------------------------
     B         5        -0.00000000     0.00000000     0.19380498
     H         1         0.00000000     0.00000000    -2.11709194
 ----------------------------------------------------------------
 
   Interatomic distance matrix (Angstroms) 
 
                 B             H    
                [ 1]        [ 2]
  B    [ 1]     0.00000
  H    [ 2]     1.22287     0.00000
 rotcon2
   Rotational constants (in cm-1): 
         12.2092513282             0.0000000000
   Rotational constants (in MHz): 
     366024.1978801875             0.0000000000
  There is   1 frozen-core orbital.
  There are   32 basis functions.
 @GEOPT-W, Archive file not created for single-point calculation.
 @CHECKOUT-I, Total execution time (CPU/WALL):        0.15/       1.33 seconds.
--executable xjoda finished with status     0 in        1.84 seconds (walltime).
 --invoking executable--
/home/CEISAM/blondel-a/soft/cfour2.1/cfour2.1-serial-mkl/bin/xvmol
 SERIAL VERSION OF MOLECULE STARTED
********************************************************************************
                    INPUT FROM MOL FILE
********************************************************************************
INTGRL        1    0    1    0    0    0    0    0    0                         
         *** CFOUR Program System (Release V0.1) ***                            
Ketene -GS                                                                      
    2    2 X  Y       0.10E-08              0    0                              
   9999.00      3.00                                                            
          5.00000000    1    3    1    1    1                                   
B #1  -0.000000000000000   0.000000000000000   0.193804984571792                
   10    4                                                                      
   4570.00000000000       6.960000000000000E-004 -1.390000000000000E-004        
  0.000000000000000E+000  0.000000000000000E+000                                
   685.900000000000       5.353000000000000E-003 -1.097000000000000E-003        
  0.000000000000000E+000  0.000000000000000E+000                                
   156.500000000000       2.713400000000000E-002 -5.444000000000000E-003        
  0.000000000000000E+000  0.000000000000000E+000                                
   44.4700000000000       0.101380000000000      -2.191600000000000E-002        
  0.000000000000000E+000  0.000000000000000E+000                                
   14.4800000000000       0.272055000000000      -5.975100000000000E-002        
  0.000000000000000E+000  0.000000000000000E+000                                
   5.13100000000000       0.448403000000000      -0.138732000000000             
  0.000000000000000E+000  0.000000000000000E+000                                
   1.89800000000000       0.290123000000000      -0.131482000000000             
  0.000000000000000E+000  0.000000000000000E+000                                
  0.332900000000000       1.432200000000000E-002  0.539526000000000             
  0.000000000000000E+000  0.000000000000000E+000                                
  0.104300000000000      -3.486000000000000E-003  0.580774000000000             
   1.00000000000000       0.000000000000000E+000                                
  3.105000000000000E-002  0.000000000000000E+000  0.000000000000000E+000        
  0.000000000000000E+000   1.00000000000000                                     
    5    3                                                                      
   6.00100000000000       3.548100000000000E-002  0.000000000000000E+000        
  0.000000000000000E+000                                                        
   1.24100000000000       0.198072000000000       0.000000000000000E+000        
  0.000000000000000E+000                                                        
  0.336400000000000       0.505230000000000       0.000000000000000E+000        
  0.000000000000000E+000                                                        
  9.538000000000001E-002  0.479499000000000        1.00000000000000             
  0.000000000000000E+000                                                        
  2.378000000000000E-002  0.000000000000000E+000  0.000000000000000E+000        
   1.00000000000000                                                             
    2    2                                                                      
  0.343000000000000        1.00000000000000       0.000000000000000E+000        
  9.039999999999999E-002  0.000000000000000E+000   1.00000000000000             
          1.00000000    1    2    1    1                                        
H #2   0.000000000000000   0.000000000000000  -2.117091944628208                
    5    3                                                                      
   13.0100000000000       1.968500000000000E-002  0.000000000000000E+000        
  0.000000000000000E+000                                                        
   1.96200000000000       0.137977000000000       0.000000000000000E+000        
  0.000000000000000E+000                                                        
  0.444600000000000       0.478148000000000       0.000000000000000E+000        
  0.000000000000000E+000                                                        
  0.122000000000000       0.501240000000000        1.00000000000000             
  0.000000000000000E+000                                                        
  2.974000000000000E-002  0.000000000000000E+000  0.000000000000000E+000        
   1.00000000000000                                                             
    2    2                                                                      
  0.727000000000000        1.00000000000000       0.000000000000000E+000        
  0.141000000000000       0.000000000000000E+000   1.00000000000000             
FINISH                                                                          
 
********************************************************************************
 ONE- AND TWO-ELECTRON INTEGRALS OVER SYMMETRY-ADAPTED AOS ARE CALCULATED.

  SPHERICAL HARMONICS ARE USED.
  
  INTEGRALS LESS THAN  0.10E-13 ARE NEGLECTED.

  NUCLEAR REPULSION ENERGY :    2.1636620556 A.U.
  @MOLECU-I, ONE ELECTRON INTEGRALS (CPU/WALL):        0.02/       0.03 SECONDS.
  @TWOEL-I,       6256 INTEGRALS OF SYMMETRY TYPE  I I I I
  @TWOEL-I,      12683 INTEGRALS OF SYMMETRY TYPE  I J I J
  @TWOEL-I,       7722 INTEGRALS OF SYMMETRY TYPE  I I J J
  @TWOEL-I,       3746 INTEGRALS OF SYMMETRY TYPE  I J K L
  @TWOEL-I, TOTAL NUMBER OF 2-E INTEGRALS      30407.
  @MOLECU-I, TWO ELECTRON INTEGRALS (CPU/WALL):        0.43/       0.03 SECONDS.
 @CHECKOUT-I, Total execution time (CPU/WALL):        0.46/       0.07 seconds.

Running with 20 threads/proc

--executable xvmol finished with status     0 in        0.57 seconds (walltime).
 --invoking executable--
/home/CEISAM/blondel-a/soft/cfour2.1/cfour2.1-serial-mkl/bin/xvmol2ja
 @GETMEM-I,  Allocated  104904 MB of main memory.
 @CHECKOUT-I, Total execution time (CPU/WALL):        0.02/       0.03 seconds.
--executable xvmol2ja finished with status     0 in        0.52 seconds (walltime).
 --invoking executable--
/home/CEISAM/blondel-a/soft/cfour2.1/cfour2.1-serial-mkl/bin/xvscf
  There are   32 functions in the AO basis.

  There are 4 irreducible representations.

       Irrep        # of functions
         1                 16
         2                  7
         3                  7
         4                  2


  Parameters for SCF calculation: 
        SCF reference function:  RHF  
  Maximum number of iterations:  150
     Full symmetry point group: CXv 
     Computational point group: C2v 
        Initial density matrix: MOREAD                 
     SCF convergence tolerance: 10**(- 8)
  DIIS convergence acceleration:  ON
          Latest start for DIIS:   8
                     DIIS order:   6

  Memory information:      80246 words required.
  Fock matrices are constructed from AO integral file.
 @GETMEM-I,  Allocated       0 MB of main memory.
  Initialization and symmetry analysis required      0.002 seconds.

  @INITGES-I, Occupancies from core Hamiltonian:

          Alpha population by irrep:   3    0    0    0
           Beta population by irrep:   3    0    0    0


 total no. of electrons in initial guess :  0.000000000000000E+000
  --------------------------------------------------------------------
  Iteration         Total Energy            Largest Density Difference
  --------------------------------------------------------------------
       0             2.163662055551274              0.0000000000D+00
   current occupation vector 
     3  0  0  0
     3  0  0  0
       1           -23.710183534654352              0.2492045290D+02
   current occupation vector 
     3  0  0  0
     3  0  0  0
       2           -24.886540100297527              0.2483602505D+02
   current occupation vector 
     3  0  0  0
     3  0  0  0
       3           -25.110440008567920              0.7028682654D+01
   current occupation vector 
     3  0  0  0
     3  0  0  0
       4           -25.125060861699104              0.4809833213D+00
   current occupation vector 
     3  0  0  0
     3  0  0  0
       5           -25.126346916492999              0.1255593107D+00
   current occupation vector 
     3  0  0  0
     3  0  0  0
       6           -25.126387257536503              0.1489947073D-01
   current occupation vector 
     3  0  0  0
     3  0  0  0
       7           -25.126389001826098              0.5571664357D-02
   current occupation vector 
     3  0  0  0
     3  0  0  0
       8           -25.126389041422133              0.1006233550D-02
   current occupation vector 
     3  0  0  0
     3  0  0  0
       9           -25.126389042965581              0.1084777109D-03
   current occupation vector 
     3  0  0  0
     3  0  0  0
      10           -25.126389042982691              0.6980340276D-05
   current occupation vector 
     3  0  0  0
     3  0  0  0
      11           -25.126389042982971              0.2529333921D-05
   current occupation vector 
     3  0  0  0
     3  0  0  0
      12           -25.126389042983007              0.3861025790D-06
   current occupation vector 
     3  0  0  0
     3  0  0  0
      13           -25.126389042982975              0.2015667145D-07
   current occupation vector 
     3  0  0  0
     3  0  0  0

  SCF has converged.

 Density matrix saved to file den.dat
 total electron number:   6.00000000000000     
     E(SCF)=       -25.126389042982971              0.1228890014D-08

  Eigenvector printing suppressed.

 @PUTMOS-I, Writing converged MOs to NEWMOS. 
 @PUTMOS-I, Symmetry   1 Full Blocks  4 Partial Blocksize   0
 @PUTMOS-I, Symmetry   2 Full Blocks  1 Partial Blocksize   3
 @PUTMOS-I, Symmetry   3 Full Blocks  1 Partial Blocksize   3
 @PUTMOS-I, Symmetry   4 Full Blocks  0 Partial Blocksize   2
 @PUTFOCK-I, Writing converged Fock matrix to NEWFOCK. 
 @PUTFOCK-I, Symmetry   1 Full Blocks  4 Partial Blocksize   0
 @PUTFOCK-I, Symmetry   2 Full Blocks  1 Partial Blocksize   3
 @PUTFOCK-I, Symmetry   3 Full Blocks  1 Partial Blocksize   3
 @PUTFOCK-I, Symmetry   4 Full Blocks  0 Partial Blocksize   2


 
  ORBITAL EIGENVALUES (ALPHA)  (1H = 27.2113834 eV)

       MO #        E(hartree)               E(eV)           FULLSYM    COMPSYM
       ----   --------------------   --------------------   -------   ---------
    1     1          -7.6904720320        -209.2683829905     SG+        A1 (1)
    2     2          -0.6521597086         -17.7461678690     SG+        A1 (1)
    3     3          -0.3471427526          -9.4462345343     SG+        A1 (1)
  +++++++++++++++++++++++++++++++++++++++++++++++++++++++++++++++++++++++++++++
    4    24           0.0268926402           0.7317859430      PI        B2 (3)
    5    17           0.0268926402           0.7317859430      PI        B1 (2)
    6     4           0.0526498124           1.4326742304     SG+        A1 (1)
    7     5           0.0648624441           1.7649968336     SG+        A1 (1)
    8    25           0.1069219338           2.9094937333      PI        B2 (3)
    9    18           0.1069219338           2.9094937333      PI        B1 (2)
   10     6           0.1318501605           3.5878252674     SG+        A1 (1)
   11     7           0.2723695771           7.4115529890     SG+        A1 (1)
   12    26           0.2741275344           7.4593894377      PI        B2 (3)
   13    19           0.2741275344           7.4593894377      PI        B1 (2)
   14     8           0.2762499455           7.5171431821      DE        A1 (1)
   15    31           0.2762499455           7.5171431821      DE        A2 (4)
   16     9           0.3537068165           9.6248517944     SG+        A1 (1)
   17    10           0.4111917806          11.1890971937     SG+        A1 (1)
   18    27           0.4969266330          13.5220611334      PI        B2 (3)
   19    20           0.4969266330          13.5220611334      PI        B1 (2)
   20    28           0.5626203647          15.3096784532      PI        B2 (3)
   21    21           0.5626203647          15.3096784532      PI        B1 (2)
   22    11           0.7163207065          19.4920773831     SG+        A1 (1)
   23    12           0.8326461537          22.6574537260     SG+        A1 (1)
   24    32           1.0554897778          28.7213370183      DE        A2 (4)
   25    13           1.0554897778          28.7213370183      DE        A1 (1)
   26    29           1.0637611568          28.9464126835      PI        B2 (3)
   27    22           1.0637611568          28.9464126835      PI        B1 (2)
   28    14           1.0966888055          29.8424195566     SG+        A1 (1)
   29    15           1.4998162691          40.8120755271     SG+        A1 (1)
   30    30           2.0367119283          55.4217491560      PI        B2 (3)
   31    23           2.0367119283          55.4217491560      PI        B1 (2)
   32    16           2.4589383081          66.9111130583     SG+        A1 (1)


  VSCF finished.

 @CHECKOUT-I, Total execution time (CPU/WALL):        0.04/       0.29 seconds.
--executable xvscf finished with status     0 in        0.77 seconds (walltime).
 --invoking executable--
/home/CEISAM/blondel-a/soft/cfour2.1/cfour2.1-serial-mkl/bin/xvtran
 @GETMEM-I,  Allocated  104904 MB of main memory.
  Full RHF integral transformation
  The following   1 MOs will be dropped:
    1
  There are  31 active molecular orbitals.
  Transformation of IIII integrals :
  1 pass through the AO integral file was required.
        6256 AO integrals were read.
        7930 MO integrals were written to HF2.
  Transformation of IIJJ integrals :
  1 pass through the AO integral file was required.
        7722 AO integrals were read.
        8028 MO integrals were written to HF2.
  Transformation of IJIJ integrals :
  1 pass through the AO integral file was required.
       12683 AO integrals were read.
       13023 MO integrals were written to HF2.
  Transformation of IJKL integrals :
  1 pass through the AO integral file was required.
        3746 AO integrals were read.
        4371 MO integrals were written to HF2.
  Summary of active molecular orbitals: 
------------------------------------------------------------------------
 
  Index      Eigenvalue    Symmetry    Index      Eigenvalue    Symmetry
------------------------------------------------------------------------
     1        -0.6521597        1        17         0.1069219        2
     2        -0.3471428        1        18         0.2741275        2
     3         0.0526498        1        19         0.4969266        2
     4         0.0648624        1        20         0.5626204        2
     5         0.1318502        1        21         1.0637612        2
     6         0.2723696        1        22         2.0367119        2
     7         0.2762499        1        23         0.0268926        3
     8         0.3537068        1        24         0.1069219        3
     9         0.4111918        1        25         0.2741275        3
    10         0.7163207        1        26         0.4969266        3
    11         0.8326462        1        27         0.5626204        3
    12         1.0554898        1        28         1.0637612        3
    13         1.0966888        1        29         2.0367119        3
    14         1.4998163        1        30         0.2762499        4
    15         2.4589383        1        31         1.0554898        4
    16         0.0268926        2
------------------------------------------------------------------------
 -0.652159708610145      -0.347142752554100       5.264981237065806E-002
  6.486244406117589E-002  0.131850160452608       0.272369577099792     
  0.276249945532084       0.353706816478772       0.411191780631914     
  0.716320706542707       0.832646153740584        1.05548977779190     
   1.09668880548815        1.49981626906452        2.45893830808646     
  2.689264019461047E-002  0.106921933755540       0.274127534351694     
  0.496926633042329       0.562620364727066        1.06376115679273     
   2.03671192828816       2.689264019461026E-002  0.106921933755540     
  0.274127534351694       0.496926633042329       0.562620364727066     
   1.06376115679273        2.03671192828816       0.276249945532084     
   1.05548977779189     
 @CHECKOUT-I, Total execution time (CPU/WALL):        0.03/       0.05 seconds.
--executable xvtran finished with status     0 in        0.54 seconds (walltime).
 --invoking executable--
/home/CEISAM/blondel-a/soft/cfour2.1/cfour2.1-serial-mkl/bin/xintprc
 @GETMEM-I,  Allocated  104904 MB of main memory.
  Processing integrals for CCSD calculation.
  @GMOIAA-I, Processing MO integrals for spin case AA.
  @GMOIAA-I, Generation of integral list completed.
                      TYPE                NUMBER
                      ----               --------
                      PPPP                 25161
                      PPPH                  7089
                      PPHH                   569
                      PHPH                   449
                      PHHH                    78
                      HHHH                     6

                     TOTAL                 33352

  @FORMT2-I, Second-order MP correlation energies:
            ------------------------------------------------
            E(SCF)                  =    -25.126389042983 a.u.
            E2(AA)                  =     -0.002009616764 a.u.
            E2(AB)                  =     -0.058278251720 a.u.
            E2(TOT)                 =     -0.062297485247 a.u.
            Total MP2 energy        =    -25.188686528230 a.u.
            ------------------------------------------------
   Largest T2 amplitudes for spin case AB:
       _       _                 _       _                 _       _
   i   j   a   b             i   j   a   b             i   j   a   b
-----------------------------------------------------------------------------
[  2   2  10  10]-0.03515 [  2   2   6   6]-0.02665 [  2   2  24  24]-0.02449
[  2   2  17  17]-0.02449 [  2   2  23  23]-0.02380 [  2   2  16  16]-0.02380
[  2   2  24  23]-0.02329 [  2   2  23  24]-0.02329 [  2   2  17  16]-0.02329
[  2   2  16  17]-0.02329 [  1   1  17  17]-0.01910 [  1   1  24  24]-0.01910
[  1   1  17  16]-0.01699 [  1   1  16  17]-0.01699 [  1   1  24  23]-0.01699
-----------------------------------------------------------------------------
   Norm of T2AB vector (     1084 symmetry allowed elements):  0.1782634454.
-----------------------------------------------------------------------------
 @CHECKOUT-I, Total execution time (CPU/WALL):        0.02/       0.06 seconds.
--executable xintprc finished with status     0 in        0.55 seconds (walltime).
  calling xncc 
 --invoking executable--
/home/CEISAM/blondel-a/soft/cfour2.1/cfour2.1-serial-mkl/bin/xncc
 @GETMEM-I,  Allocated       7 MB of main memory.

Running with 20 threads/proc

Following the lowest-energy eigenvector.
Using discrete restarting.
Using an orthogonal subspace.
Orthogonalizing against previous roots.
Using Modified Gram-Schmidt orthogonalization.

Using DIIS to accelerate the convergence of T1 and T2
Using immediate high-order contributions
Damping factor for T3: 0.000000
Damping factor for T4: 0.000000

Transposes are coarse-threaded

Memory limit:                102.445 GiB
Minimum memory requirement:  528.359 KiB
Compromise memory amount:      1.042 MiB
Optimal memory requirement:    2.653 MiB

List              Location   Size        Cached Hunks Est. Disk I/O
----------------- ---------- ----------- ------ ----- -------------

           HR_DAV      470:1  268.828 KiB    Yes     -    11.728 MiB
                R        471    6.672 KiB    Yes     -   600.469 KiB
            R_DAV      470:0  268.828 KiB    Yes     -    22.739 MiB
           T_DIIS       70:0   43.359 KiB    Yes     -   780.469 KiB
           Z_DIIS       70:1   43.359 KiB    Yes     -     1.270 MiB
          <AI|bj>         18    8.469 KiB    Yes     -   358.688 KiB
          <Ab|Cd>        233    1.405 MiB    Yes     -    43.551 MiB
          <Ab|Ci>         30  105.672 KiB    Yes     -    19.091 MiB
          <Ab|Ij>         16    8.469 KiB    Yes     -     2.183 MiB
          <Ai|Bj>         25    8.469 KiB    Yes     -   279.469 KiB
          <Aj|bI>         21    8.469 KiB     No     -         0   B
          <Ij|Ka>         10      832   B    Yes     -   192.562 KiB
          <Ij|Kl>         13      128   B    Yes     -     2.000 KiB
           DD(AI)      448:8      208   B    Yes     -     1.750 KiB
        DD(Ab,Ij)        450    8.469 KiB    Yes     -   105.000 KiB
            F(EA)       92:0    2.117 KiB    Yes     -   357.805 KiB
            F(EM)       93:0      208   B    Yes     -    16.250 KiB
            F(MI)       91:0       32   B    Yes     -     5.750 KiB
           HR(AI)      490:2      208   B    Yes     -   111.562 KiB
        HR(Ab,Ij)        463    8.469 KiB    Yes     -     7.114 MiB
            R(AI)      490:0      208   B    Yes     -   329.766 KiB
         R(Ab,Ij)        446    8.469 KiB    Yes     -    19.803 MiB
            T(AI)       90:0      208   B    Yes     -    75.969 KiB
         T(Ab,Ij)         46    8.469 KiB    Yes     -     2.208 MiB
         W(Mn,Ij)         53      128   B    Yes     -     5.875 KiB
        W~(Ab,Ej)        130  105.672 KiB    Yes     -     1.961 MiB
        W~(EM,bj)         56    8.469 KiB    Yes     -   861.375 KiB
        W~(Em,Bj)         58    8.469 KiB    Yes     -   838.406 KiB
        W~(Ij,Mb)        110      832   B    Yes     -    52.000 KiB
       W~~(EM,bj)         76    8.469 KiB    Yes     -    67.750 KiB
       W~~(Em,Bj)         78    8.469 KiB    Yes     -    67.750 KiB
         X(Ab,Ej)        430  105.672 KiB     No     -         0   B
         X(Ab,Ij)        416    8.469 KiB     No     -         0   B
            X(EA)      492:0    2.117 KiB    Yes     -   147.656 KiB
            X(EM)      493:0      208   B    Yes     -     3.281 KiB
         X(EM,bj)        418    8.469 KiB     No     -         0   B
         X(Ef,Am)        469  105.672 KiB     No     -         0   B
         X(Em,Bj)        425    8.469 KiB     No     -         0   B
         X(Ij,Mb)        410      832   B    Yes     -    19.688 KiB
            X(MI)      491:0       32   B    Yes     -         0   B
         X(Mn,Ie)        465      832   B     No     -         0   B
         X(Mn,Ij)        413      128   B    Yes     -         0   B
            Z(AI)       90:2      208   B    Yes     -    30.469 KiB
         Z(Ab,Ij)         63    8.469 KiB    Yes     -     1.241 MiB

Simulation and memory analysis took 0.019 seconds

MP2 correlation energy:  -0.062297485246961

Non-iterative calculation of MP2 took 0.003 cpu seconds and 0.000 walltime seconds at 0.161 Gflops/sec

Total MP2 energy: -25.188686528229933

Beginning iterative solution of CCSD equations:

It.  Correlation Energy T1 Residual T2 Residual CPU Time (s) Walltime (s)
-------------------------------------------------------------------------
  1  -0.078817306937755 6.14019e-03 1.27111e-02        0.575        0.037
  2  -0.084441766514055 3.98371e-03 8.30987e-03        0.179        0.011
  3  -0.088678927870925 1.51588e-03 3.35316e-03        0.162        0.010
  4  -0.089590656630591 2.83287e-04 1.09210e-03        0.163        0.010
  5  -0.089695841096863 1.23156e-04 2.64801e-04        0.161        0.010

   A    I                     A    I                     A    I                  
-------------------------- -------------------------- -------------------------- 
  11    3  0.0172722130798   17    3 -0.0059434555784   29    2  0.0036464404180 
  11    2 -0.0084847863206   23    2 -0.0050258020180   28    2 -0.0029674515545 
   6    3 -0.0073246765401   28    3  0.0048967771009   22    2  0.0026411749020 
  23    3  0.0070312939076   16    3 -0.0048069555442   17    2  0.0021559704611 
   7    3  0.0062820793366   10    3 -0.0040252687179    6    2  0.0020988882474 

   A    B    I    J                     A    B    I    J                  
------------------------------------ ------------------------------------ 
   4    4    3    3 -0.0610853624898   22   22    3    3 -0.0459043102100 
   5    5    3    3 -0.0610853624898   11   11    3    3 -0.0374528658024 
   8    4    3    3 -0.0597560628211    9    9    2    2 -0.0291965325258 
   4    8    3    3 -0.0597560628211    8    8    2    2 -0.0291965325258 
   9    5    3    3 -0.0597560628211   12    8    3    3 -0.0266416859839 
   5    9    3    3 -0.0597560628211    8   12    3    3 -0.0266416859839 
   8    8    3    3 -0.0583466353856   13    9    3    3 -0.0266416859839 
   9    9    3    3 -0.0583466353856 

It.  Correlation Energy T1 Residual T2 Residual CPU Time (s) Walltime (s)
-------------------------------------------------------------------------
  6  -0.089681671153417 6.26009e-05 9.65131e-05        0.159        0.010
  7  -0.089680966848562 2.79431e-05 2.55212e-05        0.161        0.010
  8  -0.089684578476258 1.35701e-05 5.60144e-06        0.162        0.010
  9  -0.089684601890425 6.03936e-06 1.76886e-06        0.158        0.010
 10  -0.089684354972309 2.21631e-06 5.32278e-07        0.161        0.010

   A    I                     A    I                     A    I                  
-------------------------- -------------------------- -------------------------- 
  11    3  0.0171425384878   17    3 -0.0058753888365   29    2  0.0036433910931 
  11    2 -0.0083990143259   23    2 -0.0050053992038   28    2 -0.0029528109354 
   6    3 -0.0072724421385   28    3  0.0048969104175   22    2  0.0026147841148 
  23    3  0.0070249873415   16    3 -0.0048254382284   17    2  0.0021370899227 
   7    3  0.0062542840493   10    3 -0.0040324951579    6    2  0.0020732521944 

   A    B    I    J                     A    B    I    J                  
------------------------------------ ------------------------------------ 
   4    4    3    3 -0.0614204810581   22   22    3    3 -0.0459227673343 
   5    5    3    3 -0.0614204810581   11   11    3    3 -0.0373831092334 
   8    4    3    3 -0.0600184615065    9    9    2    2 -0.0291284325790 
   4    8    3    3 -0.0600184615065    8    8    2    2 -0.0291284325790 
   9    5    3    3 -0.0600184615065   13    9    3    3 -0.0266022406573 
   5    9    3    3 -0.0600184615065    9   13    3    3 -0.0266022406573 
   8    8    3    3 -0.0585418567468   12    8    3    3 -0.0266022406573 
   9    9    3    3 -0.0585418567468 

It.  Correlation Energy T1 Residual T2 Residual CPU Time (s) Walltime (s)
-------------------------------------------------------------------------
 11  -0.089684147028099 5.51133e-07 1.52263e-07        0.156        0.010
 12  -0.089684078905987 1.26995e-07 1.04395e-07        0.154        0.010
 13  -0.089684054808806 3.53615e-08 3.07902e-08        0.156        0.010

CCSD iterations converged in 13 cycles and 0.159 seconds (0.012 s/it.) at 0.216 Gflops/sec

Total CCSD energy: -25.216073097791778

             _
Formation of H took 0.015 seconds at 0.349 Gflops/sec

Searching for 1 roots in irrep 2

EOMEE-CCSD guess vector:

   A    I                  
-------------------------- 
   5    3  1.0000000000000 

Beginning iterative solution of EOMEE-CCSD equations:

It.  Correlation Energy R1 Residual R2 Residual CPU Time (s) Walltime (s)
-------------------------------------------------------------------------
  1   0.220481767152362 4.93796e-02 4.92945e-02        0.269        0.016
  2   0.167292302603935 1.57919e-01 1.57431e-02        0.199        0.011
  3   0.121815079199547 1.34719e-02 1.77186e-02        0.197        0.010
  4   0.109874170965545 2.69044e-03 6.34822e-03        0.205        0.011
  5   0.109211472523250 1.73793e-03 1.73674e-03        0.217        0.011
  6   0.109143779956704 3.70417e-04 6.36866e-04        0.231        0.012
  7   0.109132388372834 1.54030e-04 1.61772e-04        0.244        0.013
Locking on root: 0.109130543911316
  8   0.109130543911316 4.99283e-05 7.10436e-05        0.257        0.014
  9   0.109129582692922 9.02063e-06 1.53449e-05        0.271        0.014
 10   0.109129205112817 2.15210e-06 5.86836e-06        0.287        0.015

EOMEE-CCSD iterations converged in 10 cycles and 0.127 seconds (0.013 s/it.) at 0.315 Gflops/sec

EOMEE-CCSD excitation energy:   0.109129205112819 (  2.969556640462145 eV)
Total EOMEE-CCSD energy:      -25.106943892678959

Converged root:

   A    I                     A    I                     A    I                  
-------------------------- -------------------------- -------------------------- 
   5    3  0.5477425845507   19    3  0.0472993519838   13    2 -0.0123550851594 
   9    3  0.3941224441194   27    3 -0.0255561078662   27    2 -0.0099110379088 
  21    3  0.0830414772786   13    3 -0.0217924978624   31    3  0.0060306873303 
   5    2  0.0651324780892   21    2  0.0188345338603   31    2  0.0019884710796 
   9    2  0.0631057784909   19    2  0.0169329096585 

   A    B    I    J                     A    B    I    J                  
------------------------------------ ------------------------------------ 
   5   11    3    3 -0.0437277892440   11    9    3    2  0.0300726995174 
  11    5    3    3 -0.0437277892440    9   11    2    3  0.0300726995174 
   5   22    3    3  0.0330106663696   22    5    3    2 -0.0270735147625 
  22    5    3    3  0.0330106663696    5   22    2    3 -0.0270735147625 
  11    5    3    2  0.0329960655100    5   10    3    3 -0.0258533849297 
   5   11    2    3  0.0329960655100   10    5    3    3 -0.0258533849297 
   9   11    3    3 -0.0325635010547    5   29    3    3  0.0226709016591 
  11    9    3    3 -0.0325635010547 

 @CHECKOUT-I, Total execution time (CPU/WALL):        5.51/       0.42 seconds.
--executable xncc finished with status     0 in        1.00 seconds (walltime).
  The final electronic energy is       -25.106943892678959 a.u. 
  This computation required                            6.43 seconds (walltime).
