 --invoking executable--
/home/CEISAM/blondel-a/soft/cfour2.1/cfour2.1-serial-mkl/bin/xjoda


   *************************************************************************
         <<<     CCCCCC     CCCCCC   |||     CCCCCC     CCCCCC   >>>
       <<<      CCC        CCC       |||    CCC        CCC         >>>
      <<<      CCC        CCC        |||   CCC        CCC            >>>
    <<<        CCC        CCC        |||   CCC        CCC              >>>
      <<<      CCC        CCC        |||   CCC        CCC            >>>
       <<<      CCC        CCC       |||    CCC        CCC         >>>
         <<<     CCCCCC     CCCCCC   |||     CCCCCC     CCCCCC   >>>
   *************************************************************************

     ****************************************************************
     * CFOUR Coupled-Cluster techniques for Computational Chemistry *
     ****************************************************************
 

   Department of Chemistry                Institut fuer Physikalische Chemie
   University of Florida                  Universitaet Mainz
   Gainesville, FL 32611, USA             D-55099 Mainz, Germany

   Department of Chemistry                Fakultaet fuer Chemie und Biowiss.
   Johns Hopkins University               Karlsruher Institut fuer Technologie
   Baltimore, MD 21218, USA               D-76131 Karlsruhe, Germany

   Department of Chemistry                Department of Physical Chemistry
   Southern Methodist University          Eotvos Lorand University
   Dallas, TX 75275, USA                  H-1053 Budapest, Hungary

 
                       Version 2.1
 
                     cribbar071                                        
                     Tue May  4 19:46:59 CEST 2021                     
                     integer*8 version is running
 
********************************************************************************
*                          Input from ZMAT file                                *
********************************************************************************
Ethylene: D2h                                                                   
C     0.0000000000            0.0000000000            1.1792292661              
C     0.0000000000            0.0000000000           -1.1792292661              
                                                                                
*CFOUR(COORD=CARTESIAN,UNITS=BOHR                                               
       MEMORY=110,MEM_UNIT=GB,CC_PROG=NCC                                       
       FROZEN_CORE=1                                                            
       CALC=CCSDTQ,BASIS=AUG-PVDZ                                               
       SCF_CONV=10,CC_CONV=8,ESTATE_CONV=7,ESTATE_MAXCYC=80                     
       EXCITE=EOMEE,ESTATE_SYM=2/0/0/0/0/0/0/0)                                 
                                                                                
********************************************************************************
    -------------------------------------------------------------------
                    CFOUR Control Parameters 
    -------------------------------------------------------------------
        External           Internal           Value            Units
          Name               Name
    -------------------------------------------------------------------
       ABCDTYPE             IABCDT         STANDARD    [  0]    ***   
       ANHARMONIC           IANHAR         OFF         [  0]    ***   
       ANH_ALGORIT          IANALG         STANDARD    [  0]    ***   
       ANH_DERIVAT          IANDER         SECOND      [  1]    ***   
       ANH_MODE             ANHMOD         VIBRATION   [  0]    ***   
       ANH_STEPSIZ          ICUBST             50000          x 10-6  
       ANH_SYMMETR          IANHSM         ABELIAN     [  0]    ***   
       AO_LADDERS           IAOLAD         SINGLEPASS  [  1]    ***   
       AV_SCF               IAVSCF         OFF         [  0]    ***   
       BASIS                IBASIS         AUG-PVDZ    [ 33]    ***   
       BOTHVECTORS          BOTHVC         OFF         [  0]    ***   
       BOX_POTENT           IPIAB          OFF         [  0]    ***   
       BREIT                IBREIT         OFF         [  0]    ***   
       BRUCK_CONV           IBRTOL          10D-  4             ***   
       BRUECKNER            IBRKNR         OFF         [  0]    ***   
       BUFFERSIZE           IBUFFS              4096            ***   
       CACHE_RECS           ICHREC             10               ***   
       CALCLEVEL            ICLLVL         CCSDTQ      [ 46]    ***   
       CCORBOPT             ICCORB         OFF         [  0]  x 0.01  
       CC_CONV              ICCCNV          10D-  8             ***   
       CC_EXPORDER          ICCEOR              5               ***   
       CC_EXTRAPOL          ICCEXT         DIIS        [  1]    ***   
       CC_GUESS             ICCGES         MP2         [  0]    ***   
       CC_MAXCYC            ICCCYC            100              cycles 
       CC_PROGRAM           ICCPRO         NCC         [  5]    ***   
       CHARGE               ICHRGE              0               ***   
       CHOLESKY             ICHOLE         OFF         [  0]    ***   
       CIS_CONV             ICISTL              5               ***   
       COMM_SIZE            IPSIZE            ***               ***   
       CONSTANT             ICONST         OLD         [  1]    ***   
       CONTINUUM            ICONTU         NONE        [  0]    ***   
       CONTRACTION          ICNTYP         GENERAL     [  1]    ***   
       COORDINATES          ICOORD         CARTESIAN   [  1]    ***   
       CPHF_CONVER          ICPHFT          10D- 16             ***   
       CPHF_MAXCYC          ICPHFC             64              cycles 
       CUBIC                ICUBIC         OFF         [  0]    ***   
       CURVILINEAR          ICURVY         OFF         [  0]    ***   
       DBOC                 IDBOC          OFF         [  0]    ***   
       DCT                  IDCT           OFF         [  0]    ***   
       DERIV_LEV            IDRLVL         ZERO        [  0]    ***   
       DEVMEM_SIZE          IDVMEM         *********           MByte  
       DIAG_MRCC            IEOMST          10D-  0             ***   
       DIFF_TYPE            IDIFTY         RELAXED     [  0]    ***   
       DIRECT               IDIRCT         OFF         [  0]    ***   
       DROPMO               IDRPMO      NONE         
       ECP                  IECP           OFF         [  0]    ***   
       EIGENVECTOR          IVEC                1               ***   
       EL_ANHARM            IELANH         OFF         [  0]    ***   
       EOMFOLLOW            IEOMSR         ENERGY      [  0]    ***   
       EOMIP                IEOMIP         OFF         [  0]    ***   
       EOMLEVEL             HBARFM         SAME        [  0]    ***   
       EOM_MRCC             IMRCCE         NEW         [  1]    ***   
       EOM_NONIT            EOMNON         OFF         [  0]    ***   
       EOM_NSING            IEOMSI          10D-  0             ***   
       EOM_NSTATES          IMRCCD         DAVIDSON    [  0]    ***   
       EOM_NTRIP            IEOMTR          10D-  0             ***   
       EOM_ORDER            IEXORD         ENERGY      [  0]    ***   
       EOM_PROPSTA          IEOMST              0               ***   
       ESTATE_CONV          IEXTOL          10D-  7             ***   
       ESTATE_DIAG          IEXDIG         ITERATIVE   [  0]    ***   
       ESTATE_LOCK          IESLOC         ON          [  1]    ***   
       ESTATE_MAXC          IEXMXC             80               ***   
       ESTATE_PROP          IEXPRP         OFF         [  0]    ***   
       ESTATE_SYM           IEXSYM   2,  0,  0,  0,  0,  0,  0,  0,
       EVAL_HESS            IRECAL              0            # of cyc.
       EXCITATION           IEXCIT              0               ***   
       EXCITE               IEXCIT         EOMEE       [  3]    ***   
       EXTERN_POT           IEXPOT         OFF         [  0]    ***   
       FCGRADNEW            IFCGNW         OFF         [  0]    ***   
       FC_FIELD             IFINFC              0             x 10-6  
       FD_CALTYPE           IFDCAL         GRADONLY    [  0]    ***   
       FD_PROJECT           IFDPRJ         OFF         [  1]    ***   
       FD_STEPSIZE          IDISFD              0            10-4 bohr
       FD_USEGROUP          IFDGRP         FULL        [  0]    ***   
       FILE_RECSIZ          IFLREC              4096           words  
       FINITE_PERT          IFIPER              0             x 10-6  
       FIXGEOM              IFIXGM         OFF         [  0]    ***   
       FOCK                 IFOCK          AO          [  1]    ***   
       FREQ_ALGORI          IVIALG         STANDARD    [  0]    ***   
       FROZEN_CORE          IFROCO         ON          [  1]    ***   
       GAMMA_ABCD           IGABCD         STORE       [  0]    ***   
       GAMMA_ABCI           IGABCI         STORE       [  0]    ***   
       GENBAS_1             IGNBS1              0               ***   
       GENBAS_2             IGNBS2              0               ***   
       GENBAS_3             IGNBS3              0               ***   
       GENBAS_4             IGNBS4              0               ***   
       GEO_CONV             ICONTL              5              H/bohr 
       GEO_MAXCYC           IOPTCY             50               ***   
       GEO_MAXSTEP          IMXSTP            300            millibohr
       GEO_METHOD           INR            SINGLE_POINT[  5]    ***   
       GIAO                 IGIAO          OFF         [  1]    ***   
       GIMIC                IGIMIC         OFF         [  0]    ***   
       GRID                 IGRID          OFF         [  0]    ***   
       GRID_ALGO            IGALGO         SERIAL      [  0]    ***   
       GUESS                IGUESS         MOREAD      [  0]    ***   
       HBAR                 IHBAR          ON          [  1]    ***   
       HESS_TYPE            IHESTP         SCF         [  0]    ***   
       HF2_FILE             IHF2Fl         USE         [  1]    ***   
       HFSTABILITY          ISTABL         OFF         [  0]    ***   
       INCORE               INCORE         OFF         [  0]    ***   
       INPUT_MRCC           IMRCC          ON          [  1]    ***   
       INTEGRALS            INTTYP         VMOL        [  1]    ***   
       JODA_PRINT           IJPRNT              0               ***   
       KEYWORD_OUT          IDMPKW         NO          [  0]    ***   
       LINDEP_TOL           ILINDP              8               ***   
       LINEQ_CONV           IZTACN          10D-  7           cycles  
       LINEQ_EXPOR          ILMAXD              5               ***   
       LINEQ_MAXCY          ILMAXC            100               ***   
       LINEQ_TYPE           ILTYPE         DIIS        [  1]    ***   
       LOCK_ORBOCC          ILOCOC         OFF         [  0]    ***   
       MEMORY_SIZE          IMEMSZ         *********           words  
       MEM_UNIT             IMEMU          GB          [  3]    ***   
       MRCC                 IMRCCC         OFF         [  0]    ***   
       MULTIPLICTY          IMULTP              1               ***   
       NACOUPLING           IVCOUP         OFF         [  0]    ***   
       NEGEVAL              IDIE           ABORT       [  0]    ***   
       NEWNORM              INEWNO         OFF         [  0]    ***   
       NON-HF               INONHF         OFF         [  0]    ***   
       NTOP_TAMP            ITOPT2             15               ***   
       NUC_MODEL            INUCMO         POINT       [  0]    ***   
       OCCUPATION           IOCCU   ESTIMATED BY SCF 
       OPEN-SHELL           IOPEN          SPIN-ORBITAL[  0]    ***   
       OPTVIB               IOPTVB         OFF         [  0]    ***   
       ORBITALS             IORBTP         STANDARD    [  0]    ***   
       PARALLEL             IPARAL         ON          [  1]    ***   
       PARA_INT             IPINTS         ON          [  1]    ***   
       PARA_PRINT           IPPRIN              0               ***   
       PERT_ORB             IPTORB         STANDARD    [  0]    ***   
       POINTS               IGRDFD              0               ***   
       PRINT                IPRNT               0               ***   
       PROPS                IPROPS         OFF         [  0]    ***   
       PROP_INTEGR          IINTYP         INTERNAL    [  0]    ***   
       PSI                  IPSI           OFF         [  0]    ***   
       QC_ALG               IQCALG         FLM         [  0]    ***   
       QC_LINALG            IQCLIN         TRIDIAG     [  2]    ***   
       QC_MAXCYC            IQCMAX          10D-100           cycles  
       QC_MAXSCFCY          IQCMSC          10D- 15           cycles  
       QC_RTRUST            IQCRTR          10D-  0           x 10-3  
       QC_SKIPSCF           IQCSKI         OFF         [  0]    ***   
       QC_START             IQCSTA          10D-  1             ***   
       QRHFGUESS            IQGUES         OFF         [  0]    ***   
       QUARTIC              IQUART         OFF         [  0]    ***   
       RAMAN_INT            IRAMIN         OFF         [  0]    ***   
       RAMAN_ORB            IRAMRE         UNRELAXED   [  0]    ***   
       RDO                  IRDOFM         OFF         [  0]    ***   
       REDUCE_REPR          REDREP         Ir          [  0]    ***   
       REFERENCE            IREFNC         RHF         [  0]    ***   
       RELATIVIST           IRELAT         OFF         [  0]    ***   
       RELAX_DENS           IRDENS         OFF         [  0]    ***   
       RESET_FLAGS          IRESET         OFF         [  0]    ***   
       RESTART_CC           ICCRES         OFF         [  0]    ***   
       ROT_EVEC             ROTVEC              0               ***   
       SAVE_INTS            ISVINT         OFF         [  0]    ***   
       SCALE_ON             ISTCRT              0               ***   
       SCF_CONV             ISCFCV          10D- 10             ***   
       SCF_DAMPING          IDAMP               0             x 10-3  
       SCF_EXPORDE          IRPPOR              6               ***   
       SCF_EXPSTAR          IRPPLS              8               ***   
       SCF_EXTRAPO          IRPP           ON          [  1]    ***   
       SCF_MAXCYC           ISCFCY            150              cycles 
       SCF_NOSTOP           ISCFST         OFF         [  0]    ***   
       SCF_PRINT            ISCFPR              0               ***   
       SCF_PROG             ISCFPR         SCF         [  0]    ***   
       SD_FIELD             IFINSD              0             x 10-6  
       SOPERT               IPERSO         OFF         [  0]    ***   
       SPHERICAL            IDFGHI         ON          [  1]    ***   
       SPINORBIT            ISOCAL         OFF         [  0]    ***   
       SPINROTATIO          ISRCON         OFF         [  0]    ***   
       SPIN_FLIP            ISPFLP         OFF         [  0]    ***   
       SPIN_ORBIT           ISPORB         OFF         [  0]    ***   
       SPIN_SCAL            ISCSMP         OFF         [  0]    ***   
       STEEPSCALE           ISTPSC              1000          x 10-3  
       SUBGROUP             ISUBGP         DEFAULT     [  0]    ***   
       SUBGRPAXIS           ISBXYZ         X           [  0]    ***   
       SYMMETRY             ISYM           ON          [  0]    ***   
       SYM_CHECK            ISYMCK         OVERRIDE    [  1]    ***   
       T3_EXTRAPOL          IT3EXT         ON          [  1]    ***   
       T4_EXTRAPOL          IT4EXP         OFF         [  0]    ***   
       TAMP_SUM             IEVERY              5               ***   
       TESTSUITE            ITESTS         OFF         [  0]    ***   
       THERMOCH             ITHERM         OFF         [  0]    ***   
       TOL_CHOLESK          ITOLCH          10D-  4             ***   
       TRANGRAD             IRESRM         OFF         [  0]    ***   
       TRANS_INV            ITRAIN         USE         [  0]    ***   
       TREAT_PERT           ITREAT         SIMULTANEOUS[  0]    ***   
       TRIP_ALGORI          ITRALG         NORMAL      [  0]    ***   
       UIJ_THRESHO          IUIJTH              1               ***   
       UNITS                IUNITS         BOHR        [  1]    ***   
       UNOS                 IUNOS          OFF         [  0]    ***   
       UPDATE_HESS          IHUPDT         ON          [  1]    ***   
       VIBPHASE             ISETPH         STANDARD    [  0]    ***   
       VIBRATION            IVIB           NO          [  0]    ***   
       VIB_ALGORIT          IGEALG         STANDARD    [  0]    ***   
       VNATORB              IVNORB         OFF         [  0]    ***   
       VTRAN                IVTRAN         FULL/PARTIAL[  0]    ***   
       XFIELD               IXEFLD              0             x 10-6  
       XFORM_TOL            IXFTOL          10D- 11             ***   
       YFIELD               IYEFLD              0             x 10-6  
       ZFIELD               IZEFLD              0             x 10-6  
       ZSCALE_EXP           IZEXPS         OFF         [  0]    ***   
    -------------------------------------------------------------------
  @GETXYZ-I,     2 atoms read from ZMAT.
   Rotational constants (in cm-1): 
          1.8037931429             1.8037931429
   Rotational constants (in MHz): 
      54076.3655805857         54076.3655805857
********************************************************************************
   The full molecular point group is DXh .
   The largest Abelian subgroup of the full molecular point group is D2h .
   The computational point group is D2h .
********************************************************************************


 ----------------------------------------------------------------
         Coordinates used in calculation (QCOMP) 
 ----------------------------------------------------------------
 Z-matrix   Atomic            Coordinates (in bohr)
  Symbol    Number           X              Y              Z
 ----------------------------------------------------------------
     C         6         0.00000000     0.00000000    -1.17922927
     C         6        -0.00000000     0.00000000     1.17922927
 ----------------------------------------------------------------
 
   Interatomic distance matrix (Angstroms) 
 
                 C             C    
                [ 1]        [ 2]
  C    [ 1]     0.00000
  C    [ 2]     1.24804     0.00000
 rotcon2
   Rotational constants (in cm-1): 
          1.8037931429             0.0000000000
   Rotational constants (in MHz): 
      54076.3655805857             0.0000000000
  There are   2 frozen-core orbitals.
  There are   46 basis functions.
 @GEOPT-W, Archive file not created for single-point calculation.
 @CHECKOUT-I, Total execution time (CPU/WALL):        0.16/       1.46 seconds.
--executable xjoda finished with status     0 in        2.04 seconds (walltime).
 --invoking executable--
/home/CEISAM/blondel-a/soft/cfour2.1/cfour2.1-serial-mkl/bin/xvmol
 SERIAL VERSION OF MOLECULE STARTED
********************************************************************************
                    INPUT FROM MOL FILE
********************************************************************************
INTGRL        1    0    1    0    0    0    0    0    0                         
         *** CFOUR Program System (Release V0.1) ***                            
Ethylene: D2h                                                                   
    1    3 X  Y   Z   0.10E-08              0    0                              
   9999.00      3.00                                                            
          6.00000000    1    3    1    1    1                                   
C #1   0.000000000000000   0.000000000000000  -1.179229266100000                
   10    4                                                                      
   6665.00000000000       6.920000000000000E-004 -1.460000000000000E-004        
  0.000000000000000E+000  0.000000000000000E+000                                
   1000.00000000000       5.329000000000000E-003 -1.154000000000000E-003        
  0.000000000000000E+000  0.000000000000000E+000                                
   228.000000000000       2.707700000000000E-002 -5.725000000000000E-003        
  0.000000000000000E+000  0.000000000000000E+000                                
   64.7100000000000       0.101718000000000      -2.331200000000000E-002        
  0.000000000000000E+000  0.000000000000000E+000                                
   21.0600000000000       0.274740000000000      -6.395500000000000E-002        
  0.000000000000000E+000  0.000000000000000E+000                                
   7.49500000000000       0.448564000000000      -0.149981000000000             
  0.000000000000000E+000  0.000000000000000E+000                                
   2.79700000000000       0.285074000000000      -0.127262000000000             
  0.000000000000000E+000  0.000000000000000E+000                                
  0.521500000000000       1.520400000000000E-002  0.544529000000000             
  0.000000000000000E+000  0.000000000000000E+000                                
  0.159600000000000      -3.191000000000000E-003  0.580496000000000             
   1.00000000000000       0.000000000000000E+000                                
  4.690000000000000E-002  0.000000000000000E+000  0.000000000000000E+000        
  0.000000000000000E+000   1.00000000000000                                     
    5    3                                                                      
   9.43900000000000       3.810900000000000E-002  0.000000000000000E+000        
  0.000000000000000E+000                                                        
   2.00200000000000       0.209480000000000       0.000000000000000E+000        
  0.000000000000000E+000                                                        
  0.545600000000000       0.508557000000000       0.000000000000000E+000        
  0.000000000000000E+000                                                        
  0.151700000000000       0.468842000000000        1.00000000000000             
  0.000000000000000E+000                                                        
  4.041000000000000E-002  0.000000000000000E+000  0.000000000000000E+000        
   1.00000000000000                                                             
    2    2                                                                      
  0.550000000000000        1.00000000000000       0.000000000000000E+000        
  0.151000000000000       0.000000000000000E+000   1.00000000000000             
FINISH                                                                          
 
********************************************************************************
 ONE- AND TWO-ELECTRON INTEGRALS OVER SYMMETRY-ADAPTED AOS ARE CALCULATED.

  SPHERICAL HARMONICS ARE USED.
  
  INTEGRALS LESS THAN  0.10E-13 ARE NEGLECTED.

  NUCLEAR REPULSION ENERGY :   15.2642073238 A.U.
  @MOLECU-I, ONE ELECTRON INTEGRALS (CPU/WALL):        0.02/       0.04 SECONDS.
  @TWOEL-I,       3186 INTEGRALS OF SYMMETRY TYPE  I I I I
  @TWOEL-I,      19765 INTEGRALS OF SYMMETRY TYPE  I J I J
  @TWOEL-I,      12843 INTEGRALS OF SYMMETRY TYPE  I I J J
  @TWOEL-I,      34045 INTEGRALS OF SYMMETRY TYPE  I J K L
  @TWOEL-I, TOTAL NUMBER OF 2-E INTEGRALS      69839.
  @MOLECU-I, TWO ELECTRON INTEGRALS (CPU/WALL):        0.30/       0.09 SECONDS.
 @CHECKOUT-I, Total execution time (CPU/WALL):        0.34/       0.15 seconds.

Running with 20 threads/proc

--executable xvmol finished with status     0 in        0.72 seconds (walltime).
 --invoking executable--
/home/CEISAM/blondel-a/soft/cfour2.1/cfour2.1-serial-mkl/bin/xvmol2ja
 @GETMEM-I,  Allocated  104904 MB of main memory.
 @CHECKOUT-I, Total execution time (CPU/WALL):        0.03/       0.05 seconds.
--executable xvmol2ja finished with status     0 in        0.61 seconds (walltime).
 --invoking executable--
/home/CEISAM/blondel-a/soft/cfour2.1/cfour2.1-serial-mkl/bin/xvscf
  There are   46 functions in the AO basis.

  There are 8 irreducible representations.

       Irrep        # of functions
         1                 11
         2                  5
         3                  5
         4                  2
         5                 11
         6                  5
         7                  5
         8                  2


  Parameters for SCF calculation: 
        SCF reference function:  RHF  
  Maximum number of iterations:  150
     Full symmetry point group: DXh 
     Computational point group: D2h 
        Initial density matrix: MOREAD                 
     SCF convergence tolerance: 10**(-10)
  DIIS convergence acceleration:  ON
          Latest start for DIIS:   8
                     DIIS order:   6

  Memory information:     120694 words required.
  Fock matrices are constructed from AO integral file.
 @GETMEM-I,  Allocated       0 MB of main memory.
  Initialization and symmetry analysis required      0.003 seconds.

  @INITGES-I, Occupancies from core Hamiltonian:

          Alpha population by irrep:   2    1    1    0    2    0    0    0
           Beta population by irrep:   2    1    1    0    2    0    0    0


 total no. of electrons in initial guess :  0.000000000000000E+000
  --------------------------------------------------------------------
  Iteration         Total Energy            Largest Density Difference
  --------------------------------------------------------------------
       0            15.264207323763605              0.0000000000D+00
   current occupation vector 
     2  1  1  0  2  0  0  0
     2  1  1  0  2  0  0  0
       1           -69.383309406529946              0.6646559318D+01
   current occupation vector 
     2  1  1  0  2  0  0  0
     2  1  1  0  2  0  0  0
       2           -69.651666696313299              0.7262407676D+02
   current occupation vector 
     3  1  0  0  2  0  0  0
     3  1  0  0  2  0  0  0
       3           -74.449478902466581              0.7383583098D+02
   current occupation vector 
     2  1  1  0  2  0  0  0
     2  1  1  0  2  0  0  0
       4           -75.304603924156922              0.2323077245D+01
   current occupation vector 
     2  1  1  0  2  0  0  0
     2  1  1  0  2  0  0  0
       5           -75.381690791723031              0.3365706998D+00
   current occupation vector 
     2  1  1  0  2  0  0  0
     2  1  1  0  2  0  0  0
       6           -75.388275642312152              0.1122444675D+00
   current occupation vector 
     2  1  1  0  2  0  0  0
     2  1  1  0  2  0  0  0
       7           -75.388337240037060              0.4347288775D-02
   current occupation vector 
     2  1  1  0  2  0  0  0
     2  1  1  0  2  0  0  0
       8           -75.388338980127870              0.1133173421D-02
   current occupation vector 
     2  1  1  0  2  0  0  0
     2  1  1  0  2  0  0  0
       9           -75.388339065565418              0.4206532407D-03
   current occupation vector 
     2  1  1  0  2  0  0  0
     2  1  1  0  2  0  0  0
      10           -75.388339066843784              0.5793308716D-04
   current occupation vector 
     2  1  1  0  2  0  0  0
     2  1  1  0  2  0  0  0
      11           -75.388339066876057              0.1088405736D-04
   current occupation vector 
     2  1  1  0  2  0  0  0
     2  1  1  0  2  0  0  0
      12           -75.388339066876711              0.2161193665D-05
   current occupation vector 
     2  1  1  0  2  0  0  0
     2  1  1  0  2  0  0  0
      13           -75.388339066876568              0.5582482168D-07
   current occupation vector 
     2  1  1  0  2  0  0  0
     2  1  1  0  2  0  0  0
      14           -75.388339066876540              0.1086934129D-07
   current occupation vector 
     2  1  1  0  2  0  0  0
     2  1  1  0  2  0  0  0
      15           -75.388339066876583              0.2978095326D-08
   current occupation vector 
     2  1  1  0  2  0  0  0
     2  1  1  0  2  0  0  0
      16           -75.388339066876640              0.2208448702D-09
   current occupation vector 
     2  1  1  0  2  0  0  0
     2  1  1  0  2  0  0  0
      17           -75.388339066876625              0.1140446904D-09
   current occupation vector 
     2  1  1  0  2  0  0  0
     2  1  1  0  2  0  0  0

  SCF has converged.

 Density matrix saved to file den.dat
 total electron number:   12.0000000000000     
     E(SCF)=       -75.388339066876597              0.5474398712D-11

  Eigenvector printing suppressed.

 @PUTMOS-I, Writing converged MOs to NEWMOS. 
 @PUTMOS-I, Symmetry   1 Full Blocks  2 Partial Blocksize   3
 @PUTMOS-I, Symmetry   2 Full Blocks  1 Partial Blocksize   1
 @PUTMOS-I, Symmetry   3 Full Blocks  1 Partial Blocksize   1
 @PUTMOS-I, Symmetry   4 Full Blocks  0 Partial Blocksize   2
 @PUTMOS-I, Symmetry   5 Full Blocks  2 Partial Blocksize   3
 @PUTMOS-I, Symmetry   6 Full Blocks  1 Partial Blocksize   1
 @PUTMOS-I, Symmetry   7 Full Blocks  1 Partial Blocksize   1
 @PUTMOS-I, Symmetry   8 Full Blocks  0 Partial Blocksize   2
 @PUTFOCK-I, Writing converged Fock matrix to NEWFOCK. 
 @PUTFOCK-I, Symmetry   1 Full Blocks  2 Partial Blocksize   3
 @PUTFOCK-I, Symmetry   2 Full Blocks  1 Partial Blocksize   1
 @PUTFOCK-I, Symmetry   3 Full Blocks  1 Partial Blocksize   1
 @PUTFOCK-I, Symmetry   4 Full Blocks  0 Partial Blocksize   2
 @PUTFOCK-I, Symmetry   5 Full Blocks  2 Partial Blocksize   3
 @PUTFOCK-I, Symmetry   6 Full Blocks  1 Partial Blocksize   1
 @PUTFOCK-I, Symmetry   7 Full Blocks  1 Partial Blocksize   1
 @PUTFOCK-I, Symmetry   8 Full Blocks  0 Partial Blocksize   2


 
  ORBITAL EIGENVALUES (ALPHA)  (1H = 27.2113834 eV)

       MO #        E(hartree)               E(eV)           FULLSYM    COMPSYM
       ----   --------------------   --------------------   -------   ---------
    1     1         -11.3702152726        -309.3992871221    SGg+        Ag (1)
    2    24         -11.3680316921        -309.3398688759    SGu+       B1u (5)
    3     2          -1.0633225063         -28.9344763966    SGg+        Ag (1)
    4    25          -0.5201665033         -14.1544501525    SGu+       B1u (5)
    5    12          -0.4563899817         -12.4190027725    PIu        B2u (2)
    6    17          -0.4563899817         -12.4190027725    PIu        B3u (3)
  +++++++++++++++++++++++++++++++++++++++++++++++++++++++++++++++++++++++++++++
    7     3          -0.1166200604          -3.1733931751    SGg+        Ag (1)
    8    26           0.0674509150           1.8354327079    SGu+       B1u (5)
    9    40           0.1032195183           2.8087458860    PIg        B2g (7)
   10    35           0.1032195183           2.8087458860    PIg        B3g (6)
   11     4           0.1093404577           2.9753051151    SGg+        Ag (1)
   12    18           0.1151990561           3.1347256825    PIu        B3u (3)
   13    13           0.1151990561           3.1347256825    PIu        B2u (2)
   14     5           0.1515417015           4.1236593404    SGg+        Ag (1)
   15    36           0.2070198413           5.6332962727    PIg        B3g (6)
   16    41           0.2070198413           5.6332962727    PIg        B2g (7)
   17    27           0.2422384878           6.5916443662    SGu+       B1u (5)
   18    22           0.4167905777          11.3414482060    DEg        B1g (4)
   19     6           0.4167905777          11.3414482060    DEg         Ag (1)
   20     7           0.4798930289          13.0585532014    SGg+        Ag (1)
   21    28           0.5079156432          13.8210873029    SGu+       B1u (5)
   22    19           0.5422706189          14.7559337175    PIu        B3u (3)
   23    14           0.5422706189          14.7559337175    PIu        B2u (2)
   24    29           0.5887707223          16.0212658593    DEu        B1u (5)
   25    45           0.5887707223          16.0212658593    DEu         Au (8)
   26    42           0.6417596557          17.4631680414    PIg        B2g (7)
   27    37           0.6417596557          17.4631680414    PIg        B3g (6)
   28    30           0.6888465995          18.7444689232    SGu+       B1u (5)
   29    20           0.7909336391          21.5223984978    PIu        B3u (3)
   30    15           0.7909336391          21.5223984978    PIu        B2u (2)
   31     8           0.8228462343          22.3907843607    SGg+        Ag (1)
   32    43           1.0307678097          28.0486180669    PIg        B2g (7)
   33    38           1.0307678097          28.0486180669    PIg        B3g (6)
   34    31           1.0663955617          29.0180984850    SGu+       B1u (5)
   35     9           1.3365607218          36.3696662377    SGg+        Ag (1)
   36    23           1.5303264079          41.6422986134    DEg        B1g (4)
   37    10           1.5303264079          41.6422986134    DEg         Ag (1)
   38    21           1.5732041945          42.8090625043    PIu        B3u (3)
   39    16           1.5732041945          42.8090625043    PIu        B2u (2)
   40    32           1.8529476886          50.4212699735    DEu        B1u (5)
   41    46           1.8529476886          50.4212699735    DEu         Au (8)
   42    11           2.1436235566          58.3309624651    SGg+        Ag (1)
   43    39           2.1615952264          58.8199964619    PIg        B3g (6)
   44    44           2.1615952264          58.8199964619    PIg        B2g (7)
   45    33           2.1809358664          59.3462820320    SGu+       B1u (5)
   46    34           2.4455621736          66.5471299355    SGu+       B1u (5)


  VSCF finished.

 @CHECKOUT-I, Total execution time (CPU/WALL):        0.08/       0.36 seconds.
--executable xvscf finished with status     0 in        0.91 seconds (walltime).
 --invoking executable--
/home/CEISAM/blondel-a/soft/cfour2.1/cfour2.1-serial-mkl/bin/xvtran
 @GETMEM-I,  Allocated  104904 MB of main memory.
  Full RHF integral transformation
  The following   2 MOs will be dropped:
    1  5
  There are  44 active molecular orbitals.
  Transformation of IIII integrals :
  1 pass through the AO integral file was required.
        3186 AO integrals were read.
        3448 MO integrals were written to HF2.
  Transformation of IIJJ integrals :
  1 pass through the AO integral file was required.
       12843 AO integrals were read.
       11873 MO integrals were written to HF2.
  Transformation of IJIJ integrals :
  1 pass through the AO integral file was required.
       19765 AO integrals were read.
       18233 MO integrals were written to HF2.
  Transformation of IJKL integrals :
  1 pass through the AO integral file was required.
       34045 AO integrals were read.
       30345 MO integrals were written to HF2.
  Summary of active molecular orbitals: 
------------------------------------------------------------------------
 
  Index      Eigenvalue    Symmetry    Index      Eigenvalue    Symmetry
------------------------------------------------------------------------
     1        -1.0633225        1        23         1.5303264        4
     2        -0.4563900        2        24         0.0674509        5
     3        -0.4563900        3        25         0.2422385        5
     4        -0.5201665        5        26         0.5079156        5
     5        -0.1166201        1        27         0.5887707        5
     6         0.1093405        1        28         0.6888466        5
     7         0.1515417        1        29         1.0663956        5
     8         0.4167906        1        30         1.8529477        5
     9         0.4798930        1        31         2.1809359        5
    10         0.8228462        1        32         2.4455622        5
    11         1.3365607        1        33         0.1032195        6
    12         1.5303264        1        34         0.2070198        6
    13         2.1436236        1        35         0.6417597        6
    14         0.1151991        2        36         1.0307678        6
    15         0.5422706        2        37         2.1615952        6
    16         0.7909336        2        38         0.1032195        7
    17         1.5732042        2        39         0.2070198        7
    18         0.1151991        3        40         0.6417597        7
    19         0.5422706        3        41         1.0307678        7
    20         0.7909336        3        42         2.1615952        7
    21         1.5732042        3        43         0.5887707        8
    22         0.4167906        4        44         1.8529477        8
------------------------------------------------------------------------
  -1.06332250629370      -0.456389981718625      -0.456389981718625     
 -0.520166503275023      -0.116620060377817       0.109340457683190     
  0.151541701491326       0.416790577650499       0.479893028936095     
  0.822846234296801        1.33656072177888        1.53032640793285     
   2.14362355664480       0.115199056088631       0.542270618901061     
  0.790933639110112        1.57320419454732       0.115199056088629     
  0.542270618901049       0.790933639110059        1.57320419454730     
  0.416790577650497        1.53032640793285       6.745091497048246E-002
  0.242238487814542       0.507915643233827       0.588770722304014     
  0.688846599514088        1.06639556168348        1.85294768855865     
   2.18093586641955        2.44556217364131       0.103219518271449     
  0.207019841287677       0.641759655680144        1.03076780972952     
   2.16159522642484       0.103219518271438       0.207019841287680     
  0.641759655680118        1.03076780972945        2.16159522642484     
  0.588770722304019        1.85294768855866     
 @CHECKOUT-I, Total execution time (CPU/WALL):        0.05/       0.11 seconds.
--executable xvtran finished with status     0 in        0.66 seconds (walltime).
 --invoking executable--
/home/CEISAM/blondel-a/soft/cfour2.1/cfour2.1-serial-mkl/bin/xintprc
 @GETMEM-I,  Allocated  104904 MB of main memory.
  @GMOIAA-I, Processing MO integrals for spin case AA.
  @GMOIAA-I, Generation of integral list completed.
                      TYPE                NUMBER
                      ----               --------
                      PPPP                 43645
                      PPPH                 17056
                      PPHH                  1778
                      PHPH                  1180
                      PHHH                   224
                      HHHH                    16

                     TOTAL                 63899

  @FORMT2-I, Second-order MP correlation energies:
            ------------------------------------------------
            E(SCF)                  =    -75.388339066877 a.u.
            E2(AA)                  =     -0.040294016049 a.u.
            E2(AB)                  =     -0.236047143241 a.u.
            E2(TOT)                 =     -0.316635175340 a.u.
            Total MP2 energy        =    -75.704974242217 a.u.
            ------------------------------------------------
   Largest T2 amplitudes for spin case AB:
       _       _                 _       _                 _       _
   i   j   a   b             i   j   a   b             i   j   a   b
-----------------------------------------------------------------------------
[  4   4   5   5]-0.16771 [  4   2   5  34] 0.07209 [  2   4  34   5] 0.07209
[  4   3   5  39] 0.07209 [  3   4  39   5] 0.07209 [  2   2  34  34]-0.05760
[  3   3  39  39]-0.05760 [  4   3   5  38] 0.05436 [  3   4  38   5] 0.05436
[  4   2   5  33] 0.05436 [  2   4  33   5] 0.05436 [  3   2  39  34]-0.04585
[  2   3  34  39]-0.04585 [  4   4   6   5]-0.04231 [  4   4   5   6]-0.04231
-----------------------------------------------------------------------------
   Norm of T2AB vector (     3400 symmetry allowed elements):  0.3923877891.
-----------------------------------------------------------------------------
 @CHECKOUT-I, Total execution time (CPU/WALL):        0.04/       0.06 seconds.
--executable xintprc finished with status     0 in        0.61 seconds (walltime).
  calling xncc 
 --invoking executable--
/home/CEISAM/blondel-a/soft/cfour2.1/cfour2.1-serial-mkl/bin/xncc
 @GETMEM-I,  Allocated       7 MB of main memory.

Running with 20 threads/proc

Following the lowest-energy eigenvector.
Using discrete restarting.
Using an orthogonal subspace.
Orthogonalizing against previous roots.
Using Modified Gram-Schmidt orthogonalization.

Using DIIS to accelerate the convergence of T1 and T2
Using DIIS to accelerate the convergence of T3
Using immediate high-order contributions
Performing 2 CCSDT sub-iterations
Damping factor for T3: 0.000000
Damping factor for T4: 0.000000

Transposes are coarse-threaded

Memory limit:                102.445 GiB
Minimum memory requirement:   12.800 MiB
Compromise memory amount:      3.102 GiB
Optimal memory requirement:    3.199 GiB

List              Location   Size        Cached Hunks Est. Disk I/O
----------------- ---------- ----------- ------ ----- -------------

           HR_DAV      470:1  857.000 KiB    Yes     -    77.239 MiB
                R        471   53.531 KiB    Yes     -     4.705 MiB
            R_DAV      470:0  857.000 KiB    Yes     -   162.972 MiB
           T_DIIS       70:0  133.828 KiB    Yes     -     2.352 MiB
           Z_DIIS       70:1  133.828 KiB    Yes     -     3.921 MiB
          <AI|bj>         18   26.562 KiB    Yes     -     3.812 MiB
          <Ab|Cd>        233    2.515 MiB    Yes     -    10.669 GiB
          <Ab|Ci>         30  260.688 KiB    Yes     -   671.830 MiB
          <Ab|Ij>         16   26.562 KiB    Yes     -   102.430 MiB
          <Ai|Bj>         25   26.562 KiB    Yes     -     3.580 MiB
          <Aj|bI>         21   26.562 KiB     No     -         0   B
          <Ij|Ka>         10    2.688 KiB    Yes     -     7.462 MiB
          <Ij|Kl>         13      320   B    Yes     -    14.375 KiB
           DD(AI)      448:8      208   B    Yes     -     6.297 KiB
        DD(Ab,Ij)        450   26.562 KiB    Yes     -   823.438 KiB
            F(EA)       92:0    1.969 KiB    Yes     -     2.171 MiB
            F(EM)       93:0      208   B    Yes     -   151.531 KiB
            F(MI)       91:0       32   B    Yes     -    36.688 KiB
           HR(AI)      490:2      208   B    Yes     -   457.031 KiB
        HR(Ab,Ij)        463   26.562 KiB    Yes     -    97.531 MiB
            Q(AI)      190:2      208   B    Yes     -    73.125 KiB
         Q(Ab,Ij)         50   26.562 KiB    Yes     -    37.612 MiB
        QQ(Ab,Ij)          3   26.562 KiB    Yes     -     5.331 MiB
            R(AI)      490:0      208   B    Yes     -     1.262 MiB
         R(Ab,Ij)        446   26.562 KiB    Yes     -   193.856 MiB
            T(AI)       90:0      208   B    Yes     -   342.266 KiB
         T(Ab,Ij)         46   26.562 KiB    Yes     -    87.705 MiB
         W(Mn,Ij)         53      320   B    Yes     -   454.688 KiB
        W~(Ab,Ej)        130  260.688 KiB    Yes     -   658.338 MiB
        W~(EM,bj)         56   26.562 KiB    Yes     -    51.464 MiB
        W~(Em,Bj)         58   26.562 KiB    Yes     -    80.103 MiB
        W~(Ij,Mb)        110    2.688 KiB    Yes     -     4.790 MiB
       W~~(Ab,Ej)        169  260.688 KiB    Yes     -   164.457 MiB
       W~~(EM,bj)         76   26.562 KiB    Yes     -     9.546 MiB
       W~~(Em,Bj)         78   26.562 KiB    Yes     -     9.546 MiB
       W~~(Ij,Mb)        165    2.688 KiB    Yes     -     1.549 MiB
         X(Ab,Ef)        433    2.515 MiB    Yes     -     3.979 GiB
         X(Ab,Ej)        430  260.688 KiB    Yes     -   397.141 MiB
         X(Ab,Ij)        416   26.562 KiB     No     -         0   B
            X(EA)      492:0    1.969 KiB    Yes     -     1.096 MiB
            X(EM)      493:0      208   B    Yes     -    67.031 KiB
         X(EM,bj)        418   26.562 KiB    Yes     -    22.568 MiB
         X(Ef,Am)        469  260.688 KiB    Yes     -   213.845 MiB
         X(Em,Bj)        425   26.562 KiB    Yes     -    39.688 MiB
         X(Ij,Mb)        410    2.688 KiB    Yes     -     3.858 MiB
            X(MI)      491:0       32   B    Yes     -    17.812 KiB
         X(Mn,Ie)        465    2.688 KiB    Yes     -     3.450 MiB
         X(Mn,Ij)        413      320   B    Yes     -   264.375 KiB
            Z(AI)       90:2      208   B    Yes     -    73.125 KiB
         Z(Ab,Ij)         63   26.562 KiB    Yes     -     9.338 MiB
      HR(abc,ijk)    HR3FILE 1021.375 KiB    Yes     1     1.373 GiB
    HR(abcd,ijkl)    HR4FILE   46.754 MiB    Yes     1    61.639 GiB
            HR3_1      HR3_1 1021.375 KiB    Yes     1   961.529 MiB
           HR3_10     HR3_10 1021.375 KiB    Yes     1   212.454 MiB
           HR3_11     HR3_11 1021.375 KiB    Yes     1    39.897 MiB
           HR3_12     HR3_12 1021.375 KiB    Yes     1    39.897 MiB
           HR3_13     HR3_13 1021.375 KiB    Yes     1    39.897 MiB
           HR3_14     HR3_14 1021.375 KiB    Yes     1    39.897 MiB
           HR3_15     HR3_15 1021.375 KiB    Yes     1    39.897 MiB
           HR3_16     HR3_16 1021.375 KiB    Yes     1    39.897 MiB
           HR3_17     HR3_17 1021.375 KiB    Yes     1    39.897 MiB
           HR3_18     HR3_18 1021.375 KiB    Yes     1    39.897 MiB
           HR3_19     HR3_19 1021.375 KiB    Yes     1    39.897 MiB
            HR3_2      HR3_2 1021.375 KiB    Yes     1   154.603 MiB
           HR3_20     HR3_20 1021.375 KiB    Yes     1    39.897 MiB
           HR3_21     HR3_21 1021.375 KiB    Yes     1    40.895 MiB
           HR3_22     HR3_22 1021.375 KiB    Yes     1    40.895 MiB
           HR3_23     HR3_23 1021.375 KiB    Yes     1    40.895 MiB
           HR3_24     HR3_24 1021.375 KiB    Yes     1    40.895 MiB
           HR3_25     HR3_25 1021.375 KiB    Yes     1    40.895 MiB
           HR3_26     HR3_26 1021.375 KiB    Yes     1    40.895 MiB
           HR3_27     HR3_27 1021.375 KiB    Yes     1    40.895 MiB
           HR3_28     HR3_28 1021.375 KiB    Yes     1    40.895 MiB
           HR3_29     HR3_29 1021.375 KiB    Yes     1    40.895 MiB
            HR3_3      HR3_3 1021.375 KiB    Yes     1   155.600 MiB
           HR3_30     HR3_30 1021.375 KiB    Yes     1    40.895 MiB
           HR3_31     HR3_31 1021.375 KiB     No     1         0   B
           HR3_32     HR3_32 1021.375 KiB     No     1         0   B
            HR3_4      HR3_4 1021.375 KiB    Yes     1   156.598 MiB
            HR3_5      HR3_5 1021.375 KiB    Yes     1   157.595 MiB
            HR3_6      HR3_6 1021.375 KiB    Yes     1   158.592 MiB
            HR3_7      HR3_7 1021.375 KiB    Yes     1   159.590 MiB
            HR3_8      HR3_8 1021.375 KiB    Yes     1   160.587 MiB
            HR3_9      HR3_9 1021.375 KiB    Yes     1   161.585 MiB
            HR4_1      HR4_1   46.754 MiB    Yes     1    44.014 GiB
           HR4_10     HR4_10   46.754 MiB    Yes     1     9.725 GiB
           HR4_11     HR4_11   46.754 MiB    Yes     1     1.826 GiB
           HR4_12     HR4_12   46.754 MiB    Yes     1     1.826 GiB
           HR4_13     HR4_13   46.754 MiB    Yes     1     1.826 GiB
           HR4_14     HR4_14   46.754 MiB    Yes     1     1.826 GiB
           HR4_15     HR4_15   46.754 MiB    Yes     1     1.826 GiB
           HR4_16     HR4_16   46.754 MiB    Yes     1     1.826 GiB
           HR4_17     HR4_17   46.754 MiB    Yes     1     1.826 GiB
           HR4_18     HR4_18   46.754 MiB    Yes     1     1.826 GiB
           HR4_19     HR4_19   46.754 MiB    Yes     1     1.826 GiB
            HR4_2      HR4_2   46.754 MiB    Yes     1     7.077 GiB
           HR4_20     HR4_20   46.754 MiB    Yes     1     1.826 GiB
           HR4_21     HR4_21   46.754 MiB    Yes     1     1.872 GiB
           HR4_22     HR4_22   46.754 MiB    Yes     1     1.872 GiB
           HR4_23     HR4_23   46.754 MiB    Yes     1     1.872 GiB
           HR4_24     HR4_24   46.754 MiB    Yes     1     1.872 GiB
           HR4_25     HR4_25   46.754 MiB    Yes     1     1.872 GiB
           HR4_26     HR4_26   46.754 MiB    Yes     1     1.872 GiB
           HR4_27     HR4_27   46.754 MiB    Yes     1     1.872 GiB
           HR4_28     HR4_28   46.754 MiB    Yes     1     1.872 GiB
           HR4_29     HR4_29   46.754 MiB    Yes     1     1.872 GiB
            HR4_3      HR4_3   46.754 MiB    Yes     1     7.123 GiB
           HR4_30     HR4_30   46.754 MiB    Yes     1     1.872 GiB
           HR4_31     HR4_31   46.754 MiB     No     1         0   B
           HR4_32     HR4_32   46.754 MiB     No     1         0   B
            HR4_4      HR4_4   46.754 MiB    Yes     1     7.168 GiB
            HR4_5      HR4_5   46.754 MiB    Yes     1     7.214 GiB
            HR4_6      HR4_6   46.754 MiB    Yes     1     7.260 GiB
            HR4_7      HR4_7   46.754 MiB    Yes     1     7.305 GiB
            HR4_8      HR4_8   46.754 MiB    Yes     1     7.351 GiB
            HR4_9      HR4_9   46.754 MiB    Yes     1     7.397 GiB
       Q(abc,ijk)     Q3FILE 1021.375 KiB    Yes     1    59.846 MiB
       R(abc,ijk)     R3FILE 1021.375 KiB    Yes     1     4.325 GiB
     R(abcd,ijkl)     R4FILE   46.754 MiB    Yes     1   198.613 GiB
             R3_1       R3_1 1021.375 KiB    Yes     1     1.718 GiB
            R3_10      R3_10 1021.375 KiB    Yes     1   382.018 MiB
            R3_11      R3_11 1021.375 KiB    Yes     1   129.667 MiB
            R3_12      R3_12 1021.375 KiB    Yes     1   129.667 MiB
            R3_13      R3_13 1021.375 KiB    Yes     1   129.667 MiB
            R3_14      R3_14 1021.375 KiB    Yes     1   129.667 MiB
            R3_15      R3_15 1021.375 KiB    Yes     1   129.667 MiB
            R3_16      R3_16 1021.375 KiB    Yes     1   129.667 MiB
            R3_17      R3_17 1021.375 KiB    Yes     1   129.667 MiB
            R3_18      R3_18 1021.375 KiB    Yes     1   129.667 MiB
            R3_19      R3_19 1021.375 KiB    Yes     1   129.667 MiB
           R3_1_1     R3_1_1 1021.375 KiB    Yes     1   149.615 MiB
           R3_1_2     R3_1_2 1021.375 KiB     No     1         0   B
             R3_2       R3_2 1021.375 KiB    Yes     1   324.167 MiB
            R3_20      R3_20 1021.375 KiB    Yes     1    69.821 MiB
            R3_21      R3_21 1021.375 KiB    Yes     1    40.895 MiB
            R3_22      R3_22 1021.375 KiB    Yes     1    40.895 MiB
            R3_23      R3_23 1021.375 KiB    Yes     1    40.895 MiB
            R3_24      R3_24 1021.375 KiB    Yes     1    40.895 MiB
            R3_25      R3_25 1021.375 KiB    Yes     1    40.895 MiB
            R3_26      R3_26 1021.375 KiB    Yes     1    40.895 MiB
            R3_27      R3_27 1021.375 KiB    Yes     1    40.895 MiB
            R3_28      R3_28 1021.375 KiB    Yes     1    40.895 MiB
            R3_29      R3_29 1021.375 KiB    Yes     1    40.895 MiB
             R3_3       R3_3 1021.375 KiB    Yes     1   325.164 MiB
            R3_30      R3_30 1021.375 KiB    Yes     1    40.895 MiB
            R3_31      R3_31 1021.375 KiB     No     1         0   B
            R3_32      R3_32 1021.375 KiB     No     1         0   B
             R3_4       R3_4 1021.375 KiB    Yes     1   326.162 MiB
             R3_5       R3_5 1021.375 KiB    Yes     1   327.159 MiB
             R3_6       R3_6 1021.375 KiB    Yes     1   328.157 MiB
             R3_7       R3_7 1021.375 KiB    Yes     1   329.154 MiB
             R3_8       R3_8 1021.375 KiB    Yes     1   330.151 MiB
             R3_9       R3_9 1021.375 KiB    Yes     1   331.149 MiB
             R4_1       R4_1   46.754 MiB    Yes     1    80.541 GiB
            R4_10      R4_10   46.754 MiB    Yes     1    17.487 GiB
            R4_11      R4_11   46.754 MiB    Yes     1     5.936 GiB
            R4_12      R4_12   46.754 MiB    Yes     1     5.936 GiB
            R4_13      R4_13   46.754 MiB    Yes     1     5.936 GiB
            R4_14      R4_14   46.754 MiB    Yes     1     5.936 GiB
            R4_15      R4_15   46.754 MiB    Yes     1     5.936 GiB
            R4_16      R4_16   46.754 MiB    Yes     1     5.936 GiB
            R4_17      R4_17   46.754 MiB    Yes     1     5.936 GiB
            R4_18      R4_18   46.754 MiB    Yes     1     5.936 GiB
            R4_19      R4_19   46.754 MiB    Yes     1     5.936 GiB
           R4_1_1     R4_1_1   46.754 MiB    Yes     1     6.849 GiB
           R4_1_2     R4_1_2   46.754 MiB     No     1         0   B
             R4_2       R4_2   46.754 MiB    Yes     1    14.839 GiB
            R4_20      R4_20   46.754 MiB    Yes     1     3.196 GiB
            R4_21      R4_21   46.754 MiB    Yes     1     1.872 GiB
            R4_22      R4_22   46.754 MiB    Yes     1     1.872 GiB
            R4_23      R4_23   46.754 MiB    Yes     1     1.872 GiB
            R4_24      R4_24   46.754 MiB    Yes     1     1.872 GiB
            R4_25      R4_25   46.754 MiB    Yes     1     1.872 GiB
            R4_26      R4_26   46.754 MiB    Yes     1     1.872 GiB
            R4_27      R4_27   46.754 MiB    Yes     1     1.872 GiB
            R4_28      R4_28   46.754 MiB    Yes     1     1.872 GiB
            R4_29      R4_29   46.754 MiB    Yes     1     1.872 GiB
             R4_3       R4_3   46.754 MiB    Yes     1    14.885 GiB
            R4_30      R4_30   46.754 MiB    Yes     1     1.872 GiB
            R4_31      R4_31   46.754 MiB     No     1         0   B
            R4_32      R4_32   46.754 MiB     No     1         0   B
             R4_4       R4_4   46.754 MiB    Yes     1    14.930 GiB
             R4_5       R4_5   46.754 MiB    Yes     1    14.976 GiB
             R4_6       R4_6   46.754 MiB    Yes     1    15.022 GiB
             R4_7       R4_7   46.754 MiB    Yes     1    15.067 GiB
             R4_8       R4_8   46.754 MiB    Yes     1    15.113 GiB
             R4_9       R4_9   46.754 MiB    Yes     1    15.159 GiB
       T(abc,ijk)     T3FILE 1021.375 KiB    Yes     1   331.149 MiB
     T(abcd,ijkl)     T4FILE   46.754 MiB    Yes     1     3.470 GiB
             T3_1       T3_1 1021.375 KiB    Yes     1    29.923 MiB
             T3_2       T3_2 1021.375 KiB    Yes     1    14.962 MiB
             T3_3       T3_3 1021.375 KiB    Yes     1    14.962 MiB
             T3_4       T3_4 1021.375 KiB    Yes     1    14.962 MiB
             T3_5       T3_5 1021.375 KiB    Yes     1    14.962 MiB
       W(abc,ije)    WABCIJE   24.708 MiB    Yes     1     2.244 GiB
       W(abf,ijn)    WABFIJN    2.483 MiB    Yes     1   151.472 MiB
       W(abf,inj)    WABFINJ    3.948 MiB    Yes     1   240.828 MiB
       W(abm,ijk)    WABMIJK  256.250 KiB    Yes     1    23.273 MiB
       W(mnd,jkl)    WMNDJKL   25.750 KiB    Yes     1     1.534 MiB
       X(abc,ije)    XABCIJE   24.708 MiB    Yes     1     2.895 GiB
       X(abm,ijk)    XABMIJK  256.250 KiB    Yes     1    30.029 MiB
       X(mnd,jkl)    XMNDJKL   25.750 KiB    Yes     1     1.509 MiB
       Z(abc,ijk)     Z3FILE 1021.375 KiB    Yes     1   164.577 MiB
     Z(abcd,ijkl)     Z4FILE   46.754 MiB    Yes     1     2.055 GiB
             Z3_1       Z3_1 1021.375 KiB    Yes     1    29.923 MiB
             Z3_2       Z3_2 1021.375 KiB    Yes     1    29.923 MiB
             Z3_3       Z3_3 1021.375 KiB    Yes     1    29.923 MiB
             Z3_4       Z3_4 1021.375 KiB    Yes     1    29.923 MiB
             Z3_5       Z3_5 1021.375 KiB    Yes     1    29.923 MiB

Simulation and memory analysis took 8.306 seconds

MP2 correlation energy:  -0.316635175340304

Non-iterative calculation of MP2 took 0.006 cpu seconds and 0.000 walltime seconds at 0.437 Gflops/sec

Total MP2 energy: -75.704974242216906

Beginning iterative solution of CCSDTQ equations:

It.  Correlation Energy T1 Residual T2 Residual T3 Residual T4 Residual CPU Time (s) Walltime (s)
-------------------------------------------------------------------------------------------------
  1  -0.326483007983916 9.79794e-03 2.46728e-02 1.27956e-03 4.20564e-04      159.052        7.973
  2  -0.341679976556184 4.11457e-03 1.82072e-02 4.51001e-04 1.19704e-03      366.682       18.378
  3  -0.345519251476505 7.94161e-04 2.23648e-03 1.86954e-04 1.68666e-04      364.606       18.274
  4  -0.347008577783971 2.15849e-05 7.94966e-04 4.73058e-05 1.93053e-04      366.602       18.374
  5  -0.346983554456015 2.70994e-05 3.71727e-04 2.59010e-05 1.17393e-04      374.595       18.775

   A    I                     A    I                     A    I                  
-------------------------- -------------------------- -------------------------- 
   7    3 -0.0839506451038   11    3 -0.0178420791466   22    6 -0.0123367511156 
  34    4  0.0415019396471   29    6  0.0132666956051   31    3  0.0096956011678 
  21    4 -0.0261257963775   30    5  0.0132666956051   14    3 -0.0089771642084 
  39    5  0.0187047943800   17    4  0.0123533741565    8    4 -0.0081907920335 
  38    6  0.0187047943800   23    5 -0.0123367511156   28    4 -0.0078810304526 

   A    B    I    J                     A    B    I    J                  
------------------------------------ ------------------------------------ 
   7    7    4    4 -0.3712856739715   16   16    6    6 -0.0778253185728 
  11    7    4    4 -0.0833495073894   15    7    4    5  0.0731317007152 
   7   11    4    4 -0.0833495073894    7   15    5    4  0.0731317007152 
   7   15    4    5  0.0788182159420   16    7    4    6  0.0731317007152 
  15    7    5    4  0.0788182159420    7   16    6    4  0.0731317007152 
   7   16    4    6  0.0788182159420    7    9    4    6  0.0621361998911 
  16    7    6    4  0.0788182159420    9    7    6    4  0.0621361998911 
  15   15    5    5 -0.0778253185728 

It.  Correlation Energy T1 Residual T2 Residual T3 Residual T4 Residual CPU Time (s) Walltime (s)
-------------------------------------------------------------------------------------------------
  6  -0.347005760364375 4.16736e-06 5.55021e-05 6.91591e-06 7.14245e-05      365.481       18.317
  7  -0.346980637016964 2.12612e-06 3.80680e-05 4.83676e-06 4.22068e-05      361.876       18.137
  8  -0.346965332651200 1.20553e-06 1.21639e-05 1.85214e-06 2.48335e-05      362.692       18.177
  9  -0.346956361216059 3.58789e-07 6.19605e-06 1.12693e-06 1.44857e-05      364.078       18.247
 10  -0.346950511588924 6.44679e-07 2.51992e-06 4.95028e-07 8.54347e-06      363.585       18.222

   A    I                     A    I                     A    I                  
-------------------------- -------------------------- -------------------------- 
   7    3 -0.0839375911391   11    3 -0.0178511634960   22    6 -0.0123249357499 
  34    4  0.0415063686849   29    6  0.0132601243535   31    3  0.0097015754437 
  21    4 -0.0261297236920   30    5  0.0132601243535   14    3 -0.0089886690970 
  39    5  0.0186951547901   17    4  0.0123633395280    8    4 -0.0081978703868 
  38    6  0.0186951547901   23    5 -0.0123249357499   28    4 -0.0078890476504 

   A    B    I    J                     A    B    I    J                  
------------------------------------ ------------------------------------ 
   7    7    4    4 -0.3712545928318   16   16    6    6 -0.0777747555062 
  11    7    4    4 -0.0833604480110   15    7    4    5  0.0730921805965 
   7   11    4    4 -0.0833604480110    7   15    5    4  0.0730921805965 
   7   15    4    5  0.0787699838464   16    7    4    6  0.0730921805965 
  15    7    5    4  0.0787699838464    7   16    6    4  0.0730921805965 
   7   16    4    6  0.0787699838464    9    7    6    4  0.0620892398462 
  16    7    6    4  0.0787699838464    7    9    4    6  0.0620892398462 
  15   15    5    5 -0.0777747555062 

It.  Correlation Energy T1 Residual T2 Residual T3 Residual T4 Residual CPU Time (s) Walltime (s)
-------------------------------------------------------------------------------------------------
 11  -0.346948316861276 3.18979e-07 1.67628e-06 3.46846e-07 5.01075e-06      361.776       18.131
 12  -0.346946487283172 3.70945e-07 4.94204e-07 1.48111e-07 2.98339e-06      366.309       18.359
 13  -0.346945863550270 2.22513e-07 2.00583e-07 9.41632e-08 1.75823e-06      369.337       18.511
 14  -0.346945483641797 1.20356e-07 9.53666e-08 5.59736e-08 1.04556e-06      365.238       18.305
 15  -0.346945249201228 6.51876e-08 9.89925e-08 3.49410e-08 6.21807e-07      364.587       18.273

   A    I                     A    I                     A    I                  
-------------------------- -------------------------- -------------------------- 
   7    3 -0.0839352733154   11    3 -0.0178510287180   22    6 -0.0123246800773 
  34    4  0.0415057424857   29    6  0.0132602026879   31    3  0.0097015432424 
  21    4 -0.0261293477441   30    5  0.0132602026879   14    3 -0.0089888157018 
  39    5  0.0186949506522   17    4  0.0123631939566    8    4 -0.0081977550150 
  38    6  0.0186949506522   23    5 -0.0123246800773   28    4 -0.0078890449073 

   A    B    I    J                     A    B    I    J                  
------------------------------------ ------------------------------------ 
   7    7    4    4 -0.3712420360071   16   16    6    6 -0.0777718250523 
  11    7    4    4 -0.0833588043413   15    7    4    5  0.0730888595369 
   7   11    4    4 -0.0833588043413    7   15    5    4  0.0730888595369 
   7   15    4    5  0.0787690425379   16    7    4    6  0.0730888595369 
  15    7    5    4  0.0787690425379    7   16    6    4  0.0730888595369 
   7   16    4    6  0.0787690425379    9    7    6    4  0.0620880959695 
  16    7    6    4  0.0787690425379    7    9    4    6  0.0620880959695 
  15   15    5    5 -0.0777718250523 

It.  Correlation Energy T1 Residual T2 Residual T3 Residual T4 Residual CPU Time (s) Walltime (s)
-------------------------------------------------------------------------------------------------
 16  -0.346945059269539 5.16548e-08 3.45464e-08 1.86072e-08 3.72158e-07      365.432       18.315
 17  -0.346944985138403 3.03346e-08 2.42689e-08 1.11932e-08 2.21252e-07      363.254       18.206
 18  -0.346944944270331 1.72496e-08 9.72326e-09 6.74055e-09 1.32148e-07      363.964       18.241
 19  -0.346944913989692 1.05677e-08 6.54970e-09 4.02299e-09 7.91248e-08      363.998       18.246
 20  -0.346944896201398 6.53028e-09 3.78396e-09 2.39039e-09 4.72056e-08      362.991       18.192

   A    I                     A    I                     A    I                  
-------------------------- -------------------------- -------------------------- 
   7    3 -0.0839352728485   11    3 -0.0178510318189   22    6 -0.0123246787550 
  34    4  0.0415057454375   29    6  0.0132602086489   31    3  0.0097015434170 
  21    4 -0.0261293494028   30    5  0.0132602086489   14    3 -0.0089888198079 
  39    5  0.0186949540093   17    4  0.0123631953943    8    4 -0.0081977563695 
  38    6  0.0186949540093   23    5 -0.0123246787550   28    4 -0.0078890457133 

   A    B    I    J                     A    B    I    J                  
------------------------------------ ------------------------------------ 
   7    7    4    4 -0.3712420766858   16   16    6    6 -0.0777718782822 
  11    7    4    4 -0.0833588159216   15    7    4    5  0.0730888918394 
   7   11    4    4 -0.0833588159216    7   15    5    4  0.0730888918394 
   7   15    4    5  0.0787690533447   16    7    4    6  0.0730888918394 
  15    7    5    4  0.0787690533447    7   16    6    4  0.0730888918394 
   7   16    4    6  0.0787690533447    9    7    6    4  0.0620881022677 
  16    7    6    4  0.0787690533447    7    9    4    6  0.0620881022677 
  15   15    5    5 -0.0777718782822 

It.  Correlation Energy T1 Residual T2 Residual T3 Residual T4 Residual CPU Time (s) Walltime (s)
-------------------------------------------------------------------------------------------------

CCSDTQ iterations converged in 20 cycles and 355.653 seconds (17.783 s/it.) at 1.904 Gflops/sec

Total CCSDTQ energy: -75.735283963077990

             _
Formation of H took 6.817 seconds at 0.546 Gflops/sec

Searching for 2 roots in irrep 1

EOMEE-CCSD guess vector:

   A    I                  
-------------------------- 
  13    5  1.0000000000000 

Beginning iterative solution of EOMEE-CCSDTQ equations:

It.  Correlation Energy R1 Residual R2 Residual R3 Residual R4 Residual CPU Time (s) Walltime (s)
-------------------------------------------------------------------------------------------------
  1   0.475576391983932 1.64112e-02 5.93674e-02 1.13267e-02 1.28794e-03      694.537       34.809
  2   0.407137827943954 2.52707e-02 3.69240e-02 3.94413e-03 8.62360e-04      741.729       37.174
  3   0.389442002018694 1.17588e-02 9.83165e-03 3.59886e-03 1.06138e-03      787.609       39.474
  4   0.386885065206043 1.58593e-02 9.18111e-03 2.75803e-03 4.90124e-04      830.884       41.642
  5   0.384687915867289 1.29835e-02 1.15192e-02 1.29966e-03 9.90490e-04      875.699       43.889
  6   0.376169321882155 8.48630e-03 3.63731e-02 3.14187e-03 1.85929e-03      922.519       46.235
  7   0.338869746222552 4.77985e-02 9.98419e-02 6.06861e-03 3.81502e-03      965.856       48.407
  8   0.184762299106874 3.28476e-02 5.40368e-02 2.31540e-02 4.80416e-03     1012.525       50.746
  9   0.116908605645272 1.14164e-02 3.17621e-02 1.34485e-02 6.04019e-03     1059.011       53.075
 10   0.097222321726942 7.75847e-03 2.07374e-02 5.13450e-03 5.15808e-03     1110.337       55.648
 11   0.088805980010016 6.31234e-03 1.02130e-02 3.36460e-03 3.53563e-03     1153.400       57.807
 12   0.084603729273060 2.50616e-03 4.11143e-03 1.65311e-03 1.51601e-03     1189.916       59.636
 13   0.082989817644183 1.52584e-03 1.64776e-03 8.24886e-04 7.14661e-04     1226.281       61.459
 14   0.082495509179845 3.82952e-04 9.98438e-04 4.48672e-04 2.81854e-04     1280.699       64.186
 15   0.082371984506373 3.57646e-04 4.78574e-04 2.99021e-04 2.51867e-04     1325.874       66.450
 16   0.082351137765362 1.91348e-04 2.84519e-04 1.75125e-04 1.05326e-04     1359.473       68.134
Locking on root: 0.082355588743531
 17   0.082355588743531 7.25080e-05 2.81813e-04 8.77547e-05 5.82387e-05     1406.306       70.481
 18   0.082358865400790 1.76022e-05 2.63796e-04 5.17510e-05 3.80872e-05     1445.107       72.425
 19   0.082361431680300 4.05772e-05 2.67487e-04 4.82890e-05 4.08962e-05     1487.956       74.573
Compacting subspace
 20   0.082365847227217 4.03983e-05 2.74286e-04 5.35119e-05 5.40586e-05     5766.024      288.980
 21   0.082363261397842 5.28829e-05 2.57356e-04 1.02506e-04 1.04516e-04     1135.126       56.890
 22   0.082353360810555 8.13855e-05 1.41384e-04 9.60303e-05 9.85955e-05     1189.827       59.632
 23   0.082341428179212 4.98114e-05 9.90911e-05 5.50742e-05 5.29109e-05     1233.914       61.841
 24   0.082334973393458 1.35521e-05 3.42639e-05 2.59629e-05 2.42564e-05     1278.941       64.098
 25   0.082335269919924 8.85962e-06 2.27334e-05 1.02166e-05 7.48757e-06     1322.513       66.285
 26   0.082335770367087 6.23190e-06 9.89272e-06 4.33743e-06 2.83715e-06     1342.251       67.271
 27   0.082336446161682 2.76209e-06 6.19537e-06 2.06974e-06 1.64327e-06     1384.979       69.414
 28   0.082336808687593 1.68223e-06 2.84272e-06 1.21839e-06 9.11751e-07     1437.246       72.032
 29   0.082336989646303 1.05012e-06 1.52524e-06 4.32678e-07 3.23560e-07     1480.520       74.201
Compacting subspace
 30   0.082337007049981 2.76031e-07 5.57277e-07 2.40142e-07 1.93621e-07     5755.835      288.469
 31   0.082337019828112 2.97075e-07 4.23696e-07 1.53286e-07 1.12499e-07     1130.711       56.669
 32   0.082337000732068 7.99912e-08 1.24449e-07 5.24264e-08 4.25698e-08     1177.686       59.023
 33   0.082336991676397 4.07889e-08 6.95765e-08 2.73390e-08 2.32629e-08     1220.206       61.154

EOMEE-CCSDTQ iterations converged in 33 cycles and 2392.210 seconds (72.491 s/it.) at 1.138 Gflops/sec

EOMEE-CCSDTQ excitation energy:   0.082336991676399 (  2.240503448509113 eV)
Total EOMEE-CCSDTQ energy:      -75.652946971401590

Converged root:

   A    I                     A    I                     A    I                  
-------------------------- -------------------------- -------------------------- 
  23    5 -0.0097789136092   30    5  0.0047392421591   37    3 -0.0002217264802 
  22    6  0.0097789054075   24    4 -0.0009467660748   19    3  0.0001196265708 
  38    6 -0.0061606548214   12    6 -0.0007122345115    7    3  0.0000000808539 
  39    5  0.0061606315339   13    5  0.0007122064526   34    4 -0.0000000376968 
  29    6 -0.0047392745240   40    4  0.0005682005306   21    4  0.0000000359768 

   A    B    I    J                     A    B    I    J                  
------------------------------------ ------------------------------------ 
   7    7    5    5 -0.6562779755493   20    7    6    6 -0.0579728356694 
   7    7    6    6  0.6562762615403    7   20    6    6 -0.0579728356694 
  11    7    5    5 -0.0907160172932   31    7    5    5  0.0379757956711 
   7   11    5    5 -0.0907160172932    7   31    5    5  0.0379757956711 
  11    7    6    6  0.0907158755958   31    7    6    6 -0.0379757177159 
   7   11    6    6  0.0907158755958    7   31    6    6 -0.0379757177159 
  20    7    5    5  0.0579730102469    7   16    4    6 -0.0304311034275 
   7   20    5    5  0.0579730102469 

EOMEE-CCSD guess vector:

   A    I                  
-------------------------- 
  12    6  1.0000000000000 

Beginning iterative solution of EOMEE-CCSDTQ equations:

It.  Correlation Energy R1 Residual R2 Residual R3 Residual R4 Residual CPU Time (s) Walltime (s)
-------------------------------------------------------------------------------------------------
  1   0.475574820016496 4.20419e-02 7.23473e-02 1.13259e-02 1.28778e-03      738.527       37.013
  2   0.394953017419594 1.29568e-02 1.06453e-02 8.06659e-03 1.59306e-03      782.839       39.234
  3   0.388197116615688 2.02179e-02 5.06813e-03 2.40274e-03 7.53816e-04      829.640       41.581
  4   0.386127474589213 1.15555e-02 1.10216e-02 1.17589e-03 6.97886e-04      871.526       43.679
  5   0.383295229212965 1.17817e-02 5.79703e-03 1.32933e-03 7.65124e-04      909.719       45.594
  6   0.377255848095911 4.34432e-03 2.14706e-02 2.89951e-03 1.00514e-03      958.577       48.042
  7   0.369194954621382 1.40312e-02 2.12601e-02 5.84812e-03 1.34633e-03     1009.678       50.604
  8   0.344645138725643 3.85805e-02 4.17684e-02 9.43480e-03 6.36427e-03     1044.465       52.348
  9   0.295395082267304 2.94877e-02 2.00674e-02 8.44496e-03 8.08336e-03     1084.332       54.345
 10   0.263930309442616 9.47195e-03 1.94752e-02 3.83488e-03 4.95596e-03     1134.638       56.866
 11   0.251003179547348 2.76075e-03 2.61003e-02 2.34039e-03 2.77877e-03     1172.820       58.779
 12   0.236431924548381 9.49397e-03 4.10879e-02 5.11424e-03 3.05129e-03     1214.022       60.844
 13   0.172142302639991 1.37021e-02 4.29559e-02 1.25168e-02 5.53107e-03     1257.727       63.034
 14   0.114365718686737 6.40369e-03 1.21355e-02 8.88422e-03 4.90449e-03     1299.623       65.134
 15   0.098144694910022 4.98748e-03 6.04191e-03 5.06414e-03 2.97732e-03     1345.061       67.411
 16   0.093991097580784 2.84709e-03 2.77406e-03 2.30085e-03 1.56204e-03     1389.039       69.615
 17   0.092983731265703 1.16585e-03 1.32566e-03 8.64880e-04 7.03362e-04     1433.962       71.867
 18   0.092718105723262 4.24817e-04 5.89040e-04 2.90413e-04 2.96794e-04     1474.249       73.886
 19   0.092652462481029 1.49116e-04 2.95555e-04 1.32180e-04 1.28792e-04     1518.818       76.120
Compacting subspace
 20   0.092635324468916 5.24052e-05 1.23093e-04 5.08227e-05 6.09485e-05     6315.558      316.520
Locking on root: 0.092629375579080
 21   0.092629375579080 1.99992e-05 5.86527e-05 3.40955e-05 4.07192e-05     1170.164       58.646
 22   0.092628880166767 1.23022e-05 2.78688e-05 1.54004e-05 1.67099e-05     1215.611       60.924
 23   0.092628477163201 9.73457e-06 1.65068e-05 7.83046e-06 7.96869e-06     1256.196       62.958
 24   0.092628022399261 4.28289e-06 8.66172e-06 4.15675e-06 4.05426e-06     1303.263       65.317
 25   0.092627427545189 2.29331e-06 4.20866e-06 2.19344e-06 1.67985e-06     1345.485       67.433
 26   0.092627633091128 4.43662e-07 1.88895e-06 1.08399e-06 8.93846e-07     1396.265       69.979
 27   0.092627560335625 5.55414e-07 8.13172e-07 5.01467e-07 3.38884e-07     1443.408       72.341
 28   0.092627685253581 1.96880e-07 3.29784e-07 1.36304e-07 1.41286e-07     1485.615       74.456
 29   0.092627655580232 1.24271e-07 2.10083e-07 8.61702e-08 7.79963e-08     1531.361       76.749
Compacting subspace
 30   0.092627699337337 5.58896e-08 8.87891e-08 4.63606e-08 2.86963e-08     6349.589      318.226

EOMEE-CCSDTQ iterations converged in 30 cycles and 2319.545 seconds (77.318 s/it.) at 1.107 Gflops/sec

EOMEE-CCSDTQ excitation energy:   0.092627699337342 (  2.520527840128340 eV)
Total EOMEE-CCSDTQ energy:      -75.642656263740648

Converged root:

   A    I                     A    I                     A    I                  
-------------------------- -------------------------- -------------------------- 
  21    4  0.0127218213386   29    6  0.0048231290694    8    4  0.0028656091578 
  34    4 -0.0124938372890   30    5  0.0048230751286   46    4 -0.0023334245679 
   7    3  0.0082269357184   38    6  0.0047575226118   28    4  0.0022645274913 
  23    5 -0.0079860980099   39    5  0.0047574931075   12    6  0.0020544958929 
  22    6 -0.0079860752767   17    4 -0.0039133063955   13    5  0.0020543995647 

   A    B    I    J                     A    B    I    J                  
------------------------------------ ------------------------------------ 
   7    7    6    6 -0.6117980039914   20    7    6    6  0.0543219634631 
   7    7    5    5 -0.6117960117665    7   20    6    6  0.0543219634631 
   7    7    4    4  0.3058535338350   20    7    5    5  0.0543217049869 
  11    7    5    5 -0.0853240118485    7   20    5    5  0.0543217049869 
   7   11    5    5 -0.0853240118485   11    7    4    4  0.0440296671655 
  11    7    6    6 -0.0853239380074    7   11    4    4  0.0440296671655 
   7   11    6    6 -0.0853239380074   31    7    6    6  0.0356449449604 
   7    7    3    3  0.0773751152401 

 @CHECKOUT-I, Total execution time (CPU/WALL):   101690.78/    5103.02 seconds.
--executable xncc finished with status     0 in     5103.74 seconds (walltime).
  The final electronic energy is       -75.642656263740648 a.u. 
  This computation required                         5110.00 seconds (walltime).
