 --invoking executable--
/home/CEISAM/blondel-a/soft/cfour2.1/cfour2.1-serial-mkl/bin/xjoda


   *************************************************************************
         <<<     CCCCCC     CCCCCC   |||     CCCCCC     CCCCCC   >>>
       <<<      CCC        CCC       |||    CCC        CCC         >>>
      <<<      CCC        CCC        |||   CCC        CCC            >>>
    <<<        CCC        CCC        |||   CCC        CCC              >>>
      <<<      CCC        CCC        |||   CCC        CCC            >>>
       <<<      CCC        CCC       |||    CCC        CCC         >>>
         <<<     CCCCCC     CCCCCC   |||     CCCCCC     CCCCCC   >>>
   *************************************************************************

     ****************************************************************
     * CFOUR Coupled-Cluster techniques for Computational Chemistry *
     ****************************************************************
 

   Department of Chemistry                Institut fuer Physikalische Chemie
   University of Florida                  Universitaet Mainz
   Gainesville, FL 32611, USA             D-55099 Mainz, Germany

   Department of Chemistry                Fakultaet fuer Chemie und Biowiss.
   Johns Hopkins University               Karlsruher Institut fuer Technologie
   Baltimore, MD 21218, USA               D-76131 Karlsruhe, Germany

   Department of Chemistry                Department of Physical Chemistry
   Southern Methodist University          Eotvos Lorand University
   Dallas, TX 75275, USA                  H-1053 Budapest, Hungary

 
                       Version 2.1
 
                     cribbar042                                        
                     Mon May  3 08:11:16 CEST 2021                     
                     integer*8 version is running
 
********************************************************************************
*                          Input from ZMAT file                                *
********************************************************************************
Ketene -GS                                                                      
C     0.0000000000            0.0000000000           -1.2494205467              
O     0.0000000000            0.0000000000            0.8926669184              
                                                                                
*CFOUR(COORD=CARTESIAN,UNITS=BOHR                                               
       MEMORY=250,MEM_UNIT=GB,CC_PROG=ECC                                       
       FROZEN_CORE=1                                                            
       CALC=CC2,BASIS=AUG-PVDZ                                                  
       SCF_CONV=8,CC_CONV=7,ESTATE_CONV=5,ESTATE_MAXCYC=120                     
       EXCITE=EOMEE,ESTATE_SYM=4/4/4/4)                                         
                                                                                
********************************************************************************
    -------------------------------------------------------------------
                    CFOUR Control Parameters 
    -------------------------------------------------------------------
        External           Internal           Value            Units
          Name               Name
    -------------------------------------------------------------------
       ABCDTYPE             IABCDT         STANDARD    [  0]    ***   
       ANHARMONIC           IANHAR         OFF         [  0]    ***   
       ANH_ALGORIT          IANALG         STANDARD    [  0]    ***   
       ANH_DERIVAT          IANDER         SECOND      [  1]    ***   
       ANH_MODE             ANHMOD         VIBRATION   [  0]    ***   
       ANH_STEPSIZ          ICUBST             50000          x 10-6  
       ANH_SYMMETR          IANHSM         ABELIAN     [  0]    ***   
       AO_LADDERS           IAOLAD         SINGLEPASS  [  1]    ***   
       AV_SCF               IAVSCF         OFF         [  0]    ***   
       BASIS                IBASIS         AUG-PVDZ    [ 33]    ***   
       BOTHVECTORS          BOTHVC         OFF         [  0]    ***   
       BOX_POTENT           IPIAB          OFF         [  0]    ***   
       BREIT                IBREIT         OFF         [  0]    ***   
       BRUCK_CONV           IBRTOL          10D-  4             ***   
       BRUECKNER            IBRKNR         OFF         [  0]    ***   
       BUFFERSIZE           IBUFFS              4096            ***   
       CACHE_RECS           ICHREC             10               ***   
       CALCLEVEL            ICLLVL         CC2         [ 31]    ***   
       CCORBOPT             ICCORB         OFF         [  0]  x 0.01  
       CC_CONV              ICCCNV          10D-  7             ***   
       CC_EXPORDER          ICCEOR              5               ***   
       CC_EXTRAPOL          ICCEXT         DIIS        [  1]    ***   
       CC_GUESS             ICCGES         MP2         [  0]    ***   
       CC_MAXCYC            ICCCYC            100              cycles 
       CC_PROGRAM           ICCPRO         VCC         [  0]    ***   
       CHARGE               ICHRGE              0               ***   
       CHOLESKY             ICHOLE         OFF         [  0]    ***   
       CIS_CONV             ICISTL              5               ***   
       COMM_SIZE            IPSIZE            ***               ***   
       CONSTANT             ICONST         OLD         [  1]    ***   
       CONTINUUM            ICONTU         NONE        [  0]    ***   
       CONTRACTION          ICNTYP         GENERAL     [  1]    ***   
       COORDINATES          ICOORD         CARTESIAN   [  1]    ***   
       CPHF_CONVER          ICPHFT          10D- 16             ***   
       CPHF_MAXCYC          ICPHFC             64              cycles 
       CUBIC                ICUBIC         OFF         [  0]    ***   
       CURVILINEAR          ICURVY         OFF         [  0]    ***   
       DBOC                 IDBOC          OFF         [  0]    ***   
       DCT                  IDCT           OFF         [  0]    ***   
       DERIV_LEV            IDRLVL         ZERO        [  0]    ***   
       DEVMEM_SIZE          IDVMEM         *********           MByte  
       DIAG_MRCC            IEOMST          10D-  0             ***   
       DIFF_TYPE            IDIFTY         RELAXED     [  0]    ***   
       DIRECT               IDIRCT         OFF         [  0]    ***   
       DROPMO               IDRPMO      NONE         
       ECP                  IECP           OFF         [  0]    ***   
       EIGENVECTOR          IVEC                1               ***   
       EL_ANHARM            IELANH         OFF         [  0]    ***   
       EOMFOLLOW            IEOMSR         ENERGY      [  0]    ***   
       EOMIP                IEOMIP         OFF         [  0]    ***   
       EOMLEVEL             HBARFM         SAME        [  0]    ***   
       EOM_MRCC             IMRCCE         NEW         [  1]    ***   
       EOM_NONIT            EOMNON         OFF         [  0]    ***   
       EOM_NSING            IEOMSI          10D-  0             ***   
       EOM_NSTATES          IMRCCD         DAVIDSON    [  0]    ***   
       EOM_NTRIP            IEOMTR          10D-  0             ***   
       EOM_ORDER            IEXORD         ENERGY      [  0]    ***   
       EOM_PROPSTA          IEOMST              0               ***   
       ESTATE_CONV          IEXTOL          10D-  5             ***   
       ESTATE_DIAG          IEXDIG         ITERATIVE   [  0]    ***   
       ESTATE_LOCK          IESLOC         ON          [  1]    ***   
       ESTATE_MAXC          IEXMXC            120               ***   
       ESTATE_PROP          IEXPRP         OFF         [  0]    ***   
       ESTATE_SYM           IEXSYM   4,  4,  4,  4,
       EVAL_HESS            IRECAL              0            # of cyc.
       EXCITATION           IEXCIT              0               ***   
       EXCITE               IEXCIT         EOMEE       [  3]    ***   
       EXTERN_POT           IEXPOT         OFF         [  0]    ***   
       FCGRADNEW            IFCGNW         OFF         [  0]    ***   
       FC_FIELD             IFINFC              0             x 10-6  
       FD_CALTYPE           IFDCAL         GRADONLY    [  0]    ***   
       FD_PROJECT           IFDPRJ         OFF         [  1]    ***   
       FD_STEPSIZE          IDISFD              0            10-4 bohr
       FD_USEGROUP          IFDGRP         FULL        [  0]    ***   
       FILE_RECSIZ          IFLREC              4096           words  
       FINITE_PERT          IFIPER              0             x 10-6  
       FIXGEOM              IFIXGM         OFF         [  0]    ***   
       FOCK                 IFOCK          AO          [  1]    ***   
       FREQ_ALGORI          IVIALG         STANDARD    [  0]    ***   
       FROZEN_CORE          IFROCO         ON          [  1]    ***   
       GAMMA_ABCD           IGABCD         STORE       [  0]    ***   
       GAMMA_ABCI           IGABCI         STORE       [  0]    ***   
       GENBAS_1             IGNBS1              0               ***   
       GENBAS_2             IGNBS2              0               ***   
       GENBAS_3             IGNBS3              0               ***   
       GENBAS_4             IGNBS4              0               ***   
       GEO_CONV             ICONTL              5              H/bohr 
       GEO_MAXCYC           IOPTCY             50               ***   
       GEO_MAXSTEP          IMXSTP            300            millibohr
       GEO_METHOD           INR            SINGLE_POINT[  5]    ***   
       GIAO                 IGIAO          OFF         [  1]    ***   
       GIMIC                IGIMIC         OFF         [  0]    ***   
       GRID                 IGRID          OFF         [  0]    ***   
       GRID_ALGO            IGALGO         SERIAL      [  0]    ***   
       GUESS                IGUESS         MOREAD      [  0]    ***   
       HBAR                 IHBAR          ON          [  1]    ***   
       HESS_TYPE            IHESTP         SCF         [  0]    ***   
       HF2_FILE             IHF2Fl         USE         [  1]    ***   
       HFSTABILITY          ISTABL         OFF         [  0]    ***   
       INCORE               INCORE         OFF         [  0]    ***   
       INPUT_MRCC           IMRCC          ON          [  1]    ***   
       INTEGRALS            INTTYP         VMOL        [  1]    ***   
       JODA_PRINT           IJPRNT              0               ***   
       KEYWORD_OUT          IDMPKW         NO          [  0]    ***   
       LINDEP_TOL           ILINDP              8               ***   
       LINEQ_CONV           IZTACN          10D-  7           cycles  
       LINEQ_EXPOR          ILMAXD              5               ***   
       LINEQ_MAXCY          ILMAXC            100               ***   
       LINEQ_TYPE           ILTYPE         DIIS        [  1]    ***   
       LOCK_ORBOCC          ILOCOC         OFF         [  0]    ***   
       MEMORY_SIZE          IMEMSZ         *********           words  
       MEM_UNIT             IMEMU          GB          [  3]    ***   
       MRCC                 IMRCCC         OFF         [  0]    ***   
       MULTIPLICTY          IMULTP              1               ***   
       NACOUPLING           IVCOUP         OFF         [  0]    ***   
       NEGEVAL              IDIE           ABORT       [  0]    ***   
       NEWNORM              INEWNO         OFF         [  0]    ***   
       NON-HF               INONHF         OFF         [  0]    ***   
       NTOP_TAMP            ITOPT2             15               ***   
       NUC_MODEL            INUCMO         POINT       [  0]    ***   
       OCCUPATION           IOCCU   ESTIMATED BY SCF 
       OPEN-SHELL           IOPEN          SPIN-ORBITAL[  0]    ***   
       OPTVIB               IOPTVB         OFF         [  0]    ***   
       ORBITALS             IORBTP         STANDARD    [  0]    ***   
       PARALLEL             IPARAL         ON          [  1]    ***   
       PARA_INT             IPINTS         ON          [  1]    ***   
       PARA_PRINT           IPPRIN              0               ***   
       PERT_ORB             IPTORB         STANDARD    [  0]    ***   
       POINTS               IGRDFD              0               ***   
       PRINT                IPRNT               0               ***   
       PROPS                IPROPS         OFF         [  0]    ***   
       PROP_INTEGR          IINTYP         INTERNAL    [  0]    ***   
       PSI                  IPSI           OFF         [  0]    ***   
       QC_ALG               IQCALG         FLM         [  0]    ***   
       QC_LINALG            IQCLIN         TRIDIAG     [  2]    ***   
       QC_MAXCYC            IQCMAX          10D-100           cycles  
       QC_MAXSCFCY          IQCMSC          10D- 15           cycles  
       QC_RTRUST            IQCRTR          10D-  0           x 10-3  
       QC_SKIPSCF           IQCSKI         OFF         [  0]    ***   
       QC_START             IQCSTA          10D-  1             ***   
       QRHFGUESS            IQGUES         OFF         [  0]    ***   
       QUARTIC              IQUART         OFF         [  0]    ***   
       RAMAN_INT            IRAMIN         OFF         [  0]    ***   
       RAMAN_ORB            IRAMRE         UNRELAXED   [  0]    ***   
       RDO                  IRDOFM         OFF         [  0]    ***   
       REDUCE_REPR          REDREP         Ir          [  0]    ***   
       REFERENCE            IREFNC         RHF         [  0]    ***   
       RELATIVIST           IRELAT         OFF         [  0]    ***   
       RELAX_DENS           IRDENS         OFF         [  0]    ***   
       RESET_FLAGS          IRESET         OFF         [  0]    ***   
       RESTART_CC           ICCRES         OFF         [  0]    ***   
       ROT_EVEC             ROTVEC              0               ***   
       SAVE_INTS            ISVINT         OFF         [  0]    ***   
       SCALE_ON             ISTCRT              0               ***   
       SCF_CONV             ISCFCV          10D-  8             ***   
       SCF_DAMPING          IDAMP               0             x 10-3  
       SCF_EXPORDE          IRPPOR              6               ***   
       SCF_EXPSTAR          IRPPLS              8               ***   
       SCF_EXTRAPO          IRPP           ON          [  1]    ***   
       SCF_MAXCYC           ISCFCY            150              cycles 
       SCF_NOSTOP           ISCFST         OFF         [  0]    ***   
       SCF_PRINT            ISCFPR              0               ***   
       SCF_PROG             ISCFPR         SCF         [  0]    ***   
       SD_FIELD             IFINSD              0             x 10-6  
       SOPERT               IPERSO         OFF         [  0]    ***   
       SPHERICAL            IDFGHI         ON          [  1]    ***   
       SPINORBIT            ISOCAL         OFF         [  0]    ***   
       SPINROTATIO          ISRCON         OFF         [  0]    ***   
       SPIN_FLIP            ISPFLP         OFF         [  0]    ***   
       SPIN_ORBIT           ISPORB         OFF         [  0]    ***   
       SPIN_SCAL            ISCSMP         OFF         [  0]    ***   
       STEEPSCALE           ISTPSC              1000          x 10-3  
       SUBGROUP             ISUBGP         DEFAULT     [  0]    ***   
       SUBGRPAXIS           ISBXYZ         X           [  0]    ***   
       SYMMETRY             ISYM           ON          [  0]    ***   
       SYM_CHECK            ISYMCK         OVERRIDE    [  1]    ***   
       T3_EXTRAPOL          IT3EXT         OFF         [  0]    ***   
       T4_EXTRAPOL          IT4EXP         OFF         [  0]    ***   
       TAMP_SUM             IEVERY              5               ***   
       TESTSUITE            ITESTS         OFF         [  0]    ***   
       THERMOCH             ITHERM         OFF         [  0]    ***   
       TOL_CHOLESK          ITOLCH          10D-  4             ***   
       TRANGRAD             IRESRM         OFF         [  0]    ***   
       TRANS_INV            ITRAIN         USE         [  0]    ***   
       TREAT_PERT           ITREAT         SIMULTANEOUS[  0]    ***   
       TRIP_ALGORI          ITRALG         NORMAL      [  0]    ***   
       UIJ_THRESHO          IUIJTH              1               ***   
       UNITS                IUNITS         BOHR        [  1]    ***   
       UNOS                 IUNOS          OFF         [  0]    ***   
       UPDATE_HESS          IHUPDT         ON          [  1]    ***   
       VIBPHASE             ISETPH         STANDARD    [  0]    ***   
       VIBRATION            IVIB           NO          [  0]    ***   
       VIB_ALGORIT          IGEALG         STANDARD    [  0]    ***   
       VNATORB              IVNORB         OFF         [  0]    ***   
       VTRAN                IVTRAN         FULL/PARTIAL[  0]    ***   
       XFIELD               IXEFLD              0             x 10-6  
       XFORM_TOL            IXFTOL          10D- 11             ***   
       YFIELD               IYEFLD              0             x 10-6  
       ZFIELD               IZEFLD              0             x 10-6  
       ZSCALE_EXP           IZEXPS         OFF         [  0]    ***   
    -------------------------------------------------------------------
  @GETXYZ-I,     2 atoms read from ZMAT.
   Rotational constants (in cm-1): 
          1.9135333977             1.9135333977
   Rotational constants (in MHz): 
      57366.2961120363         57366.2961120363
********************************************************************************
   The full molecular point group is CXv .
   The largest Abelian subgroup of the full molecular point group is C2v .
   The computational point group is C2v .
********************************************************************************


 ----------------------------------------------------------------
         Coordinates used in calculation (QCOMP) 
 ----------------------------------------------------------------
 Z-matrix   Atomic            Coordinates (in bohr)
  Symbol    Number           X              Y              Z
 ----------------------------------------------------------------
     C         6        -0.00000000     0.00000000     1.22388322
     O         8         0.00000000     0.00000000    -0.91820425
 ----------------------------------------------------------------
 
   Interatomic distance matrix (Angstroms) 
 
                 C             O    
                [ 1]        [ 2]
  C    [ 1]     0.00000
  O    [ 2]     1.13354     0.00000
 rotcon2
   Rotational constants (in cm-1): 
          1.9135333977             0.0000000000
   Rotational constants (in MHz): 
      57366.2961120363             0.0000000000
  There are   2 frozen-core orbitals.
  There are   46 basis functions.
 @GEOPT-W, Archive file not created for single-point calculation.
 @CHECKOUT-I, Total execution time (CPU/WALL):        0.17/       1.52 seconds.
--executable xjoda finished with status     0 in        2.14 seconds (walltime).
 --invoking executable--
/home/CEISAM/blondel-a/soft/cfour2.1/cfour2.1-serial-mkl/bin/xvmol
 SERIAL VERSION OF MOLECULE STARTED
********************************************************************************
                    INPUT FROM MOL FILE
********************************************************************************
INTGRL        1    0    1    0    0    0    0    0    0                         
         *** CFOUR Program System (Release V0.1) ***                            
Ketene -GS                                                                      
    2    2 X  Y       0.10E-08              0    0                              
   9999.00      3.00                                                            
          6.00000000    1    3    1    1    1                                   
C #1  -0.000000000000000   0.000000000000000   1.223883215473396                
   10    4                                                                      
   6665.00000000000       6.920000000000000E-004 -1.460000000000000E-004        
  0.000000000000000E+000  0.000000000000000E+000                                
   1000.00000000000       5.329000000000000E-003 -1.154000000000000E-003        
  0.000000000000000E+000  0.000000000000000E+000                                
   228.000000000000       2.707700000000000E-002 -5.725000000000000E-003        
  0.000000000000000E+000  0.000000000000000E+000                                
   64.7100000000000       0.101718000000000      -2.331200000000000E-002        
  0.000000000000000E+000  0.000000000000000E+000                                
   21.0600000000000       0.274740000000000      -6.395500000000000E-002        
  0.000000000000000E+000  0.000000000000000E+000                                
   7.49500000000000       0.448564000000000      -0.149981000000000             
  0.000000000000000E+000  0.000000000000000E+000                                
   2.79700000000000       0.285074000000000      -0.127262000000000             
  0.000000000000000E+000  0.000000000000000E+000                                
  0.521500000000000       1.520400000000000E-002  0.544529000000000             
  0.000000000000000E+000  0.000000000000000E+000                                
  0.159600000000000      -3.191000000000000E-003  0.580496000000000             
   1.00000000000000       0.000000000000000E+000                                
  4.690000000000000E-002  0.000000000000000E+000  0.000000000000000E+000        
  0.000000000000000E+000   1.00000000000000                                     
    5    3                                                                      
   9.43900000000000       3.810900000000000E-002  0.000000000000000E+000        
  0.000000000000000E+000                                                        
   2.00200000000000       0.209480000000000       0.000000000000000E+000        
  0.000000000000000E+000                                                        
  0.545600000000000       0.508557000000000       0.000000000000000E+000        
  0.000000000000000E+000                                                        
  0.151700000000000       0.468842000000000        1.00000000000000             
  0.000000000000000E+000                                                        
  4.041000000000000E-002  0.000000000000000E+000  0.000000000000000E+000        
   1.00000000000000                                                             
    2    2                                                                      
  0.550000000000000        1.00000000000000       0.000000000000000E+000        
  0.151000000000000       0.000000000000000E+000   1.00000000000000             
          8.00000000    1    3    1    1    1                                   
O #2   0.000000000000000   0.000000000000000  -0.918204249626604                
   10    4                                                                      
   11720.0000000000       7.100000000000000E-004 -1.600000000000000E-004        
  0.000000000000000E+000  0.000000000000000E+000                                
   1759.00000000000       5.470000000000000E-003 -1.263000000000000E-003        
  0.000000000000000E+000  0.000000000000000E+000                                
   400.800000000000       2.783700000000000E-002 -6.267000000000000E-003        
  0.000000000000000E+000  0.000000000000000E+000                                
   113.700000000000       0.104800000000000      -2.571600000000000E-002        
  0.000000000000000E+000  0.000000000000000E+000                                
   37.0300000000000       0.283062000000000      -7.092400000000000E-002        
  0.000000000000000E+000  0.000000000000000E+000                                
   13.2700000000000       0.448719000000000      -0.165411000000000             
  0.000000000000000E+000  0.000000000000000E+000                                
   5.02500000000000       0.270952000000000      -0.116955000000000             
  0.000000000000000E+000  0.000000000000000E+000                                
   1.01300000000000       1.545800000000000E-002  0.557368000000000             
  0.000000000000000E+000  0.000000000000000E+000                                
  0.302300000000000      -2.585000000000000E-003  0.572759000000000             
   1.00000000000000       0.000000000000000E+000                                
  7.896000000000000E-002  0.000000000000000E+000  0.000000000000000E+000        
  0.000000000000000E+000   1.00000000000000                                     
    5    3                                                                      
   17.7000000000000       4.301800000000000E-002  0.000000000000000E+000        
  0.000000000000000E+000                                                        
   3.85400000000000       0.228913000000000       0.000000000000000E+000        
  0.000000000000000E+000                                                        
   1.04600000000000       0.508728000000000       0.000000000000000E+000        
  0.000000000000000E+000                                                        
  0.275300000000000       0.460531000000000        1.00000000000000             
  0.000000000000000E+000                                                        
  6.856000000000000E-002  0.000000000000000E+000  0.000000000000000E+000        
   1.00000000000000                                                             
    2    2                                                                      
   1.18500000000000        1.00000000000000       0.000000000000000E+000        
  0.332000000000000       0.000000000000000E+000   1.00000000000000             
FINISH                                                                          
 
********************************************************************************
 ONE- AND TWO-ELECTRON INTEGRALS OVER SYMMETRY-ADAPTED AOS ARE CALCULATED.

  SPHERICAL HARMONICS ARE USED.
  
  INTEGRALS LESS THAN  0.10E-13 ARE NEGLECTED.

  NUCLEAR REPULSION ENERGY :   22.4080485891 A.U.
  @MOLECU-I, ONE ELECTRON INTEGRALS (CPU/WALL):        0.03/       0.06 SECONDS.
  @TWOEL-I,      20634 INTEGRALS OF SYMMETRY TYPE  I I I I
  @TWOEL-I,      54522 INTEGRALS OF SYMMETRY TYPE  I J I J
  @TWOEL-I,      31497 INTEGRALS OF SYMMETRY TYPE  I I J J
  @TWOEL-I,      23276 INTEGRALS OF SYMMETRY TYPE  I J K L
  @TWOEL-I, TOTAL NUMBER OF 2-E INTEGRALS     129929.
  @MOLECU-I, TWO ELECTRON INTEGRALS (CPU/WALL):        0.55/       0.15 SECONDS.
 @CHECKOUT-I, Total execution time (CPU/WALL):        0.59/       0.23 seconds.

Running with 20 threads/proc

--executable xvmol finished with status     0 in        0.78 seconds (walltime).
 --invoking executable--
/home/CEISAM/blondel-a/soft/cfour2.1/cfour2.1-serial-mkl/bin/xvmol2ja
 @GETMEM-I,  Allocated  238418 MB of main memory.
 @CHECKOUT-I, Total execution time (CPU/WALL):        0.03/       0.09 seconds.
--executable xvmol2ja finished with status     0 in        0.65 seconds (walltime).
 --invoking executable--
/home/CEISAM/blondel-a/soft/cfour2.1/cfour2.1-serial-mkl/bin/xvscf
  There are   46 functions in the AO basis.

  There are 4 irreducible representations.

       Irrep        # of functions
         1                 22
         2                 10
         3                 10
         4                  4


  Parameters for SCF calculation: 
        SCF reference function:  RHF  
  Maximum number of iterations:  150
     Full symmetry point group: CXv 
     Computational point group: C2v 
        Initial density matrix: MOREAD                 
     SCF convergence tolerance: 10**(- 8)
  DIIS convergence acceleration:  ON
          Latest start for DIIS:   8
                     DIIS order:   6

  Memory information:     124718 words required.
  Fock matrices are constructed from AO integral file.
 @GETMEM-I,  Allocated       0 MB of main memory.
  Initialization and symmetry analysis required      0.003 seconds.

  @INITGES-I, Occupancies from core Hamiltonian:

          Alpha population by irrep:   5    1    1    0
           Beta population by irrep:   5    1    1    0


 total no. of electrons in initial guess :  0.000000000000000E+000
  --------------------------------------------------------------------
  Iteration         Total Energy            Largest Density Difference
  --------------------------------------------------------------------
       0            22.408048589070660              0.0000000000D+00
   current occupation vector 
     5  1  1  0
     5  1  1  0
       1          -101.770413872132067              0.1172489943D+02
   current occupation vector 
     5  1  1  0
     5  1  1  0
       2           -99.556892574791718              0.1159131805D+02
   current occupation vector 
     5  1  1  0
     5  1  1  0
       3          -105.369528038964575              0.8816136348D+01
   current occupation vector 
     5  1  1  0
     5  1  1  0
       4          -101.277741407632362              0.8811206339D+01
   current occupation vector 
     5  1  1  0
     5  1  1  0
       5          -104.205473143904996              0.8778673672D+01
   current occupation vector 
     5  1  1  0
     5  1  1  0
       6          -100.851874086183884              0.8718002090D+01
   current occupation vector 
     5  1  1  0
     5  1  1  0
       7          -104.141123097515887              0.7480747250D+01
   current occupation vector 
     5  1  1  0
     5  1  1  0
       8          -100.790048666015451              0.7467250466D+01
   current occupation vector 
     5  1  1  0
     5  1  1  0
       9          -112.206171404067817              0.3931276014D+01
   current occupation vector 
     5  1  1  0
     5  1  1  0
      10          -112.610847449410983              0.4991632208D+00
   current occupation vector 
     5  1  1  0
     5  1  1  0
      11          -112.748787531133701              0.2734785535D+00
   current occupation vector 
     5  1  1  0
     5  1  1  0
      12          -112.753991182523407              0.6677754256D-01
   current occupation vector 
     5  1  1  0
     5  1  1  0
      13          -112.754132493540936              0.2621699120D-01
   current occupation vector 
     5  1  1  0
     5  1  1  0
      14          -112.754164899356738              0.9295512821D-02
   current occupation vector 
     5  1  1  0
     5  1  1  0
      15          -112.754165434523145              0.2119112090D-02
   current occupation vector 
     5  1  1  0
     5  1  1  0
      16          -112.754165448065606              0.2209579250D-03
   current occupation vector 
     5  1  1  0
     5  1  1  0
      17          -112.754165448183983              0.1935862245D-04
   current occupation vector 
     5  1  1  0
     5  1  1  0
      18          -112.754165448190037              0.4744245929D-05
   current occupation vector 
     5  1  1  0
     5  1  1  0
      19          -112.754165448190065              0.6517129028D-06
   current occupation vector 
     5  1  1  0
     5  1  1  0
      20          -112.754165448190463              0.2630119624D-06
   current occupation vector 
     5  1  1  0
     5  1  1  0

  SCF has converged.

 Density matrix saved to file den.dat
 total electron number:   14.0000000000000     
     E(SCF)=      -112.754165448190378              0.8578849187D-08

  Eigenvector printing suppressed.

 @PUTMOS-I, Writing converged MOs to NEWMOS. 
 @PUTMOS-I, Symmetry   1 Full Blocks  5 Partial Blocksize   2
 @PUTMOS-I, Symmetry   2 Full Blocks  2 Partial Blocksize   2
 @PUTMOS-I, Symmetry   3 Full Blocks  2 Partial Blocksize   2
 @PUTMOS-I, Symmetry   4 Full Blocks  1 Partial Blocksize   0
 @PUTFOCK-I, Writing converged Fock matrix to NEWFOCK. 
 @PUTFOCK-I, Symmetry   1 Full Blocks  5 Partial Blocksize   2
 @PUTFOCK-I, Symmetry   2 Full Blocks  2 Partial Blocksize   2
 @PUTFOCK-I, Symmetry   3 Full Blocks  2 Partial Blocksize   2
 @PUTFOCK-I, Symmetry   4 Full Blocks  1 Partial Blocksize   0


 
  ORBITAL EIGENVALUES (ALPHA)  (1H = 27.2113834 eV)

       MO #        E(hartree)               E(eV)           FULLSYM    COMPSYM
       ----   --------------------   --------------------   -------   ---------
    1     1         -20.6786426341        -562.6944729077     SG+        A1 (1)
    2     2         -11.3760025849        -309.5567678981     SG+        A1 (1)
    3     3          -1.5262528800         -41.5314522819     SG+        A1 (1)
    4     4          -0.8078514557         -21.9827556923     SG+        A1 (1)
    5    23          -0.6387300373         -17.3807279336      PI        B1 (2)
    6    33          -0.6387300373         -17.3807279336      PI        B2 (3)
    7     5          -0.5552995948         -15.1104701756     SG+        A1 (1)
  +++++++++++++++++++++++++++++++++++++++++++++++++++++++++++++++++++++++++++++
    8    24           0.0785902742           2.1385500839      PI        B1 (2)
    9    34           0.0785902742           2.1385500839      PI        B2 (3)
   10     6           0.0814344478           2.2159439821     SG+        A1 (1)
   11     7           0.1055195039           2.8713316758     SG+        A1 (1)
   12    35           0.1694667774           4.6114254545      PI        B2 (3)
   13    25           0.1694667774           4.6114254545      PI        B1 (2)
   14     8           0.2251901959           6.1277367582     SG+        A1 (1)
   15    26           0.2478783858           6.7451137915      PI        B1 (2)
   16    36           0.2478783858           6.7451137915      PI        B2 (3)
   17     9           0.3350066878           9.1159954230     SG+        A1 (1)
   18    43           0.4337503161          11.8029461502      DE        A2 (4)
   19    10           0.4337503161          11.8029461502      DE        A1 (1)
   20    11           0.5218862937          14.2012480300     SG+        A1 (1)
   21    27           0.6020431848          16.3824279244      PI        B1 (2)
   22    37           0.6020431848          16.3824279244      PI        B2 (3)
   23    12           0.6973668078          18.9763155777     SG+        A1 (1)
   24    28           0.7467300122          20.3195566571      PI        B1 (2)
   25    38           0.7467300122          20.3195566571      PI        B2 (3)
   26    13           0.9372377491          25.5035357283     SG+        A1 (1)
   27    44           1.0541785010          28.6856553637      DE        A2 (4)
   28    14           1.0541785010          28.6856553637      DE        A1 (1)
   29    15           1.0562226039          28.7412782301     SG+        A1 (1)
   30    39           1.2062288794          32.8231565053      PI        B2 (3)
   31    29           1.2062288794          32.8231565053      PI        B1 (2)
   32    16           1.4270267763          38.8313727312     SG+        A1 (1)
   33    45           1.6521204063          44.9564817992      DE        A2 (4)
   34    17           1.6521204063          44.9564817992      DE        A1 (1)
   35    40           1.6691368080          45.4195216294      PI        B2 (3)
   36    30           1.6691368080          45.4195216294      PI        B1 (2)
   37    31           1.9652423796          53.4769638665      PI        B1 (2)
   38    41           1.9652423796          53.4769638665      PI        B2 (3)
   39    18           2.1345639001          58.0844366780     SG+        A1 (1)
   40    19           2.2260613737          60.5742095116     SG+        A1 (1)
   41    20           2.9840348454          81.1997162579     SG+        A1 (1)
   42    21           3.5502389237          96.6069125133      DE        A1 (1)
   43    46           3.5502389237          96.6069125133      DE        A2 (4)
   44    32           3.6706196126          99.8826375947      PI        B1 (2)
   45    42           3.6706196126          99.8826375947      PI        B2 (3)
   46    22           4.0313995857         109.6999597643     SG+        A1 (1)


  VSCF finished.

 @CHECKOUT-I, Total execution time (CPU/WALL):        0.11/       0.40 seconds.
--executable xvscf finished with status     0 in        0.95 seconds (walltime).
 --invoking executable--
/home/CEISAM/blondel-a/soft/cfour2.1/cfour2.1-serial-mkl/bin/xvtran
 @GETMEM-I,  Allocated  238418 MB of main memory.
  Full RHF integral transformation
  The following   2 MOs will be dropped:
    1  2
  There are  44 active molecular orbitals.
  Transformation of IIII integrals :
  1 pass through the AO integral file was required.
       20634 AO integrals were read.
       21950 MO integrals were written to HF2.
  Transformation of IIJJ integrals :
  1 pass through the AO integral file was required.
       31497 AO integrals were read.
       29146 MO integrals were written to HF2.
  Transformation of IJIJ integrals :
  1 pass through the AO integral file was required.
       54522 AO integrals were read.
       49487 MO integrals were written to HF2.
  Transformation of IJKL integrals :
  1 pass through the AO integral file was required.
       23276 AO integrals were read.
       22808 MO integrals were written to HF2.
  Summary of active molecular orbitals: 
------------------------------------------------------------------------
 
  Index      Eigenvalue    Symmetry    Index      Eigenvalue    Symmetry
------------------------------------------------------------------------
     1        -1.5262529        1        23         0.0785903        2
     2        -0.8078515        1        24         0.1694668        2
     3        -0.5552996        1        25         0.2478784        2
     4        -0.6387300        2        26         0.6020432        2
     5        -0.6387300        3        27         0.7467300        2
     6         0.0814344        1        28         1.2062289        2
     7         0.1055195        1        29         1.6691368        2
     8         0.2251902        1        30         1.9652424        2
     9         0.3350067        1        31         3.6706196        2
    10         0.4337503        1        32         0.0785903        3
    11         0.5218863        1        33         0.1694668        3
    12         0.6973668        1        34         0.2478784        3
    13         0.9372377        1        35         0.6020432        3
    14         1.0541785        1        36         0.7467300        3
    15         1.0562226        1        37         1.2062289        3
    16         1.4270268        1        38         1.6691368        3
    17         1.6521204        1        39         1.9652424        3
    18         2.1345639        1        40         3.6706196        3
    19         2.2260614        1        41         0.4337503        4
    20         2.9840348        1        42         1.0541785        4
    21         3.5502389        1        43         1.6521204        4
    22         4.0313996        1        44         3.5502389        4
------------------------------------------------------------------------
  -1.52625287995882      -0.807851455736062      -0.555299594786239     
 -0.638730037281784      -0.638730037281783       8.143444783857537E-002
  0.105519503864132       0.225190195887270       0.335006687790657     
  0.433750316061234       0.521886293734787       0.697366807808261     
  0.937237749120589        1.05417850103549        1.05622260388817     
   1.42702677627305        1.65212040631471        2.13456390012086     
   2.22606137369628        2.98403484542891        3.55023892365960     
   4.03139958567253       7.859027424068604E-002  0.169466777441378     
  0.247878385761194       0.602043184781579       0.746730012156472     
   1.20622887939124        1.66913680799644        1.96524237964702     
   3.67061961262466       7.859027424068701E-002  0.169466777441374     
  0.247878385761206       0.602043184781580       0.746730012156540     
   1.20622887939124        1.66913680799643        1.96524237964703     
   3.67061961262467       0.433750316061234        1.05417850103549     
   1.65212040631471        3.55023892365961     
 @CHECKOUT-I, Total execution time (CPU/WALL):        0.07/       0.16 seconds.
--executable xvtran finished with status     0 in        0.73 seconds (walltime).
 --invoking executable--
/home/CEISAM/blondel-a/soft/cfour2.1/cfour2.1-serial-mkl/bin/xintprc
 @GETMEM-I,  Allocated  238418 MB of main memory.
  @GMOIAA-I, Processing MO integrals for spin case AA.
  @GMOIAA-I, Generation of integral list completed.
                      TYPE                NUMBER
                      ----               --------
                      PPPP                 75717
                      PPPH                 38439
                      PPHH                  5077
                      PHPH                  3248
                      PHHH                   861
                      HHHH                    49

                     TOTAL                123391

  @FORMT2-I, Second-order MP correlation energies:
            ------------------------------------------------
            E(SCF)                  =   -112.754165448190 a.u.
            E2(AA)                  =     -0.039651395505 a.u.
            E2(AB)                  =     -0.220928162489 a.u.
            E2(TOT)                 =     -0.300230953499 a.u.
            Total MP2 energy        =   -113.054396401690 a.u.
            ------------------------------------------------
   Largest T2 amplitudes for spin case AB:
       _       _                 _       _                 _       _
   i   j   a   b             i   j   a   b             i   j   a   b
-----------------------------------------------------------------------------
[  5   5  33  33]-0.03960 [  4   4  24  24]-0.03960 [  5   4  33  24]-0.03165
[  4   5  24  33]-0.03165 [  3   3  33  33]-0.02962 [  3   3  24  24]-0.02962
[  3   3  15  15]-0.02568 [  5   5  33  32]-0.02435 [  5   5  32  33]-0.02435
[  4   4  24  23]-0.02435 [  4   4  23  24]-0.02435 [  5   4  33  23]-0.01965
[  4   5  23  33]-0.01965 [  5   4  32  24]-0.01965 [  4   5  24  32]-0.01965
-----------------------------------------------------------------------------
   Norm of T2AB vector (    10269 symmetry allowed elements):  0.2699068942.
-----------------------------------------------------------------------------
 @CHECKOUT-I, Total execution time (CPU/WALL):        0.16/       0.12 seconds.
--executable xintprc finished with status     0 in        0.68 seconds (walltime).
  calling xvcc 
 --invoking executable--
/home/CEISAM/blondel-a/soft/cfour2.1/cfour2.1-serial-mkl/bin/xvcc
 @GETMEM-I,  Allocated  238418 MB of main memory.
   CC2 energy will be calculated.
   The total correlation energy is -0.300230953499 a.u.
   The total correlation energy is -0.299599337191 a.u.
  Convergence information after     1 iterations: 
  Largest element of residual vector :  0.26814318E-01.
  Largest element of DIIS residual   :  0.26814318E-01.
   The total correlation energy is -0.305495932344 a.u.
  Convergence information after     2 iterations: 
  Largest element of residual vector : -0.38989630E-02.
  Largest element of DIIS residual   : -0.37771488E-02.
   The total correlation energy is -0.305877314023 a.u.
  Convergence information after     3 iterations: 
  Largest element of residual vector :  0.59582993E-02.
  Largest element of DIIS residual   : -0.15063617E-02.
   The total correlation energy is -0.307424666371 a.u.
  Convergence information after     4 iterations: 
  Largest element of residual vector :  0.48879533E-03.
  Largest element of DIIS residual   :  0.42054201E-03.
   The total correlation energy is -0.307436395709 a.u.
  Convergence information after     5 iterations: 
  Largest element of residual vector :  0.12964940E-03.
  Largest element of DIIS residual   : -0.49402802E-04.
   The total correlation energy is -0.307439706902 a.u.
  Convergence information after     6 iterations: 
  Largest element of residual vector :  0.29792157E-04.
  Largest element of DIIS residual   :  0.19947377E-04.
   The total correlation energy is -0.307441941670 a.u.
  Convergence information after     7 iterations: 
  Largest element of residual vector :  0.68845781E-05.
  Largest element of DIIS residual   : -0.35681321E-05.
   The total correlation energy is -0.307441612107 a.u.
  Convergence information after     8 iterations: 
  Largest element of residual vector :  0.21346977E-05.
  Largest element of DIIS residual   :  0.88901102E-06.
   The total correlation energy is -0.307441848776 a.u.
  Convergence information after     9 iterations: 
  Largest element of residual vector :  0.49061621E-06.
  Largest element of DIIS residual   : -0.42272058E-06.
   The total correlation energy is -0.307441865650 a.u.
  Convergence information after    10 iterations: 
  Largest element of residual vector :  0.13631169E-06.
  Largest element of DIIS residual   :  0.57247320E-07.
   The total correlation energy is -0.307441883105 a.u.
  Convergence information after    11 iterations: 
  Largest element of residual vector :  0.55590328E-07.
  Largest element of DIIS residual   :  0.33278153E-07.
  Amplitude equations converged in    11iterations.
   The total correlation energy is -0.307441886316 a.u.
   The CC iterations have converged.

   Largest T1 amplitudes for spin case AA:
   i       a                 i       a                 i       a    
-----------------------------------------------------------------------------
[  5      33    ] 0.03863 [  4      24    ] 0.03863 [  5      32    ] 0.02270
[  4      23    ] 0.02270 [  4      29    ] 0.01449 [  5      38    ] 0.01449
[  4      27    ] 0.01341 [  5      36    ] 0.01341 [  3       9    ]-0.01312
[  3       6    ] 0.01297 [  4      25    ] 0.00898 [  5      34    ] 0.00898
[  2      11    ] 0.00846 [  3      15    ] 0.00681 [  3      13    ]-0.00561
-----------------------------------------------------------------------------
   Norm of T1AA vector (       69 symmetry allowed elements):  0.0756574344.
-----------------------------------------------------------------------------
   Largest T2 amplitudes for spin case AB:
       _       _                 _       _                 _       _
   i   j   a   b             i   j   a   b             i   j   a   b
-----------------------------------------------------------------------------
[  5   5  33  33]-0.04517 [  4   4  24  24]-0.04517 [  5   4  33  24]-0.03621
[  4   5  24  33]-0.03621 [  3   3  33  33]-0.02857 [  3   3  24  24]-0.02857
[  5   5  33  32]-0.02778 [  5   5  32  33]-0.02778 [  4   4  24  23]-0.02778
[  4   4  23  24]-0.02778 [  3   3  15  15]-0.02570 [  5   4  33  23]-0.02248
[  4   5  23  33]-0.02248 [  5   4  32  24]-0.02248 [  4   5  24  32]-0.02248
-----------------------------------------------------------------------------
   Norm of T2AB vector (    10269 symmetry allowed elements):  0.2820627715.
-----------------------------------------------------------------------------
       Summary of iterative solution of CC equations 
      -----------------------------------------------------------
                       Correlation           Total
       Iteration         Energy              Energy
      -----------------------------------------------------------
            0        -0.300230953499    -113.054396401690  DIIS 
            1        -0.299599337191    -113.053764785381  DIIS 
            2        -0.305495932344    -113.059661380535  DIIS 
            3        -0.305877314023    -113.060042762214  DIIS 
            4        -0.307424666371    -113.061590114561  DIIS 
            5        -0.307436395709    -113.061601843899  DIIS 
            6        -0.307439706902    -113.061605155093  DIIS 
            7        -0.307441941670    -113.061607389860  DIIS 
            8        -0.307441612107    -113.061607060298  DIIS 
            9        -0.307441848776    -113.061607296966  DIIS 
           10        -0.307441865650    -113.061607313841  DIIS 
           11        -0.307441886316    -113.061607334507  DIIS 
      -----------------------------------------------------------
      A miracle has come to pass. The CC iterations have converged.
      The reference energy is      -112.75416544819038 a.u.
      The correlation energy is      -0.30744188631628 a.u.
      The total energy is          -113.06160733450666 a.u.
 @CHECKOUT-I, Total execution time (CPU/WALL):        3.48/       0.24 seconds.
--executable xvcc finished with status     0 in        0.79 seconds (walltime).
 --invoking executable--
/home/CEISAM/blondel-a/soft/cfour2.1/cfour2.1-serial-mkl/bin/xlambda
 @GETMEM-I,  Allocated  238418 MB of main memory.
 Hbar is calculated for a CC2 wave function.
 Calculation of Hbar completed.
 @CHECKOUT-I, Total execution time (CPU/WALL):        0.94/       0.13 seconds.
--executable xlambda finished with status     0 in        0.69 seconds (walltime).
 --invoking executable--
/home/CEISAM/blondel-a/soft/cfour2.1/cfour2.1-serial-mkl/bin/xvee
 @GETMEM-I,  Allocated  238418 MB of main memory.
  cc2 and ccprog  T                     0
  EOMEE-CC2 excitation energies will be evaluated.
  @SETMET-I, VPROP property integrals are used.
  @SETMET-I, A total of  16 target states will be studied.
  Summary of active alpha molecular orbitals:
------------------------------------------------------------------------------
Orbital      Sym   Eigenvalue  <xx>     <yy>     <zz>     <xy>     <xz>     <yz>
        SCF
  #  position
------------------------------------------------------------------------------
   1      3    1      -1.5263   0.000    0.000    0.000    0.000    0.000    0.000
   2      4    1      -0.8079   0.000    0.000    0.000    0.000    0.000    0.000
   3      7    1      -0.5553   0.000    0.000    0.000    0.000    0.000    0.000
   4      5    2      -0.6387   0.000    0.000    0.000    0.000    0.000    0.000
   5      6    3      -0.6387   0.000    0.000    0.000    0.000    0.000    0.000
   6     10    1       0.0814   0.000    0.000    0.000    0.000    0.000    0.000
   7     11    1       0.1055   0.000    0.000    0.000    0.000    0.000    0.000
   8     14    1       0.2252   0.000    0.000    0.000    0.000    0.000    0.000
   9     17    1       0.3350   0.000    0.000    0.000    0.000    0.000    0.000
  10     19    1       0.4338   0.000    0.000    0.000    0.000    0.000    0.000
  11     20    1       0.5219   0.000    0.000    0.000    0.000    0.000    0.000
  12     23    1       0.6974   0.000    0.000    0.000    0.000    0.000    0.000
  13     26    1       0.9372   0.000    0.000    0.000    0.000    0.000    0.000
  14     28    1       1.0542   0.000    0.000    0.000    0.000    0.000    0.000
  15     29    1       1.0562   0.000    0.000    0.000    0.000    0.000    0.000
  16     32    1       1.4270   0.000    0.000    0.000    0.000    0.000    0.000
  17     34    1       1.6521   0.000    0.000    0.000    0.000    0.000    0.000
  18     39    1       2.1346   0.000    0.000    0.000    0.000    0.000    0.000
  19     40    1       2.2261   0.000    0.000    0.000    0.000    0.000    0.000
  20     41    1       2.9840   0.000    0.000    0.000    0.000    0.000    0.000
  21     42    1       3.5502   0.000    0.000    0.000    0.000    0.000    0.000
  22     46    1       4.0314   0.000    0.000    0.000    0.000    0.000    0.000
  23      8    2       0.0786   0.000    0.000    0.000    0.000    0.000    0.000
  24     13    2       0.1695   0.000    0.000    0.000    0.000    0.000    0.000
  25     15    2       0.2479   0.000    0.000    0.000    0.000    0.000    0.000
  26     21    2       0.6020   0.000    0.000    0.000    0.000    0.000    0.000
  27     24    2       0.7467   0.000    0.000    0.000    0.000    0.000    0.000
  28     31    2       1.2062   0.000    0.000    0.000    0.000    0.000    0.000
  29     36    2       1.6691   0.000    0.000    0.000    0.000    0.000    0.000
  30     37    2       1.9652   0.000    0.000    0.000    0.000    0.000    0.000
  31     44    2       3.6706   0.000    0.000    0.000    0.000    0.000    0.000
  32      9    3       0.0786   0.000    0.000    0.000    0.000    0.000    0.000
  33     12    3       0.1695   0.000    0.000    0.000    0.000    0.000    0.000
  34     16    3       0.2479   0.000    0.000    0.000    0.000    0.000    0.000
  35     22    3       0.6020   0.000    0.000    0.000    0.000    0.000    0.000
  36     25    3       0.7467   0.000    0.000    0.000    0.000    0.000    0.000
  37     30    3       1.2062   0.000    0.000    0.000    0.000    0.000    0.000
  38     35    3       1.6691   0.000    0.000    0.000    0.000    0.000    0.000
  39     38    3       1.9652   0.000    0.000    0.000    0.000    0.000    0.000
  40     45    3       3.6706   0.000    0.000    0.000    0.000    0.000    0.000
  41     18    4       0.4338   0.000    0.000    0.000    0.000    0.000    0.000
  42     27    4       1.0542   0.000    0.000    0.000    0.000    0.000    0.000
  43     33    4       1.6521   0.000    0.000    0.000    0.000    0.000    0.000
  44     43    4       3.5502   0.000    0.000    0.000    0.000    0.000    0.000
------------------------------------------------------------------------------
  @DRVTDA-I, Roots obtained by Davidson method.
  calling tda davidson                       7                     1
  after tda davidson                      7                     7
                     4                     4
  kroot is                      4
  calling tda davidson                       7                     2
  after tda davidson                      7                     7
                     4                     4
  kroot is                      4
  calling tda davidson                       7                     3
  after tda davidson                      7                     7
                     4                     4
  kroot is                      4
  calling tda davidson                       7                     4
  after tda davidson                      7                     7
                     4                     4
  kroot is                      4
__________________________________________________________________________
    Tamm-Dancoff (CIS) Excitation Energies and Transition Moments

                Excitation         Transition Dipole         Oscillator
 Root  Symmetry  Energy         x           y           z     Strength
__________________________________________________________________________
   1       1    0.36886      0.0000      0.0000      0.0000  .00000000D+00
__________________________________________________________________________
 
__________________________________________________________________________
  TDA excitation ergy:             0.368864209561 a.u.   10.0373 eV
  Total TDA electronic energy:  -112.385301238630 a.u.
 
  Dominant contributions: 
  SCF eigenvalue ordering used in list below. 
--------------------------------------------------------------------------------
    I    j    A    b
--------------------------------------------------------------------------------
    6    0   12    0   0.5091533982 AA  
    5    0   13    0  -0.5091525511 AA  
    5    0    8    0  -0.4381545845 AA  
    6    0    9    0   0.4381542325 AA  
    6    0   16    0   0.1906269649 AA  
    5    0   15    0  -0.1906249341 AA  
    6    0   22    0   0.0871935135 AA  
    5    0   21    0  -0.0871933430 AA  
    5    0   24    0  -0.0542981832 AA  
    6    0   25    0   0.0542965357 AA  
    6    0   35    0  -0.0318675469 AA  
    5    0   36    0   0.0318670608 AA  
    6    0   30    0   0.0248238027 AA  
    5    0   31    0  -0.0248228877 AA  
    3    0   19    0  -0.0112347699 AA  
--------------------------------------------------------------------------------
   2       1    0.45406      0.0000      0.0000      0.0000  .00000000D+00
__________________________________________________________________________
 
__________________________________________________________________________
  TDA excitation ergy:             0.454063220426 a.u.   12.3557 eV
  Total TDA electronic energy:  -112.300102227764 a.u.
 
  Dominant contributions: 
  SCF eigenvalue ordering used in list below. 
--------------------------------------------------------------------------------
    I    j    A    b
--------------------------------------------------------------------------------
    7    0   11    0  -0.7366152407 AA  
    7    0   10    0   0.6121655364 AA  
    7    0   14    0  -0.1595531842 AA  
    6    0   12    0   0.1198025250 AA  
    5    0   13    0   0.1198025250 AA  
    7    0   17    0  -0.0820732263 AA  
    6    0    9    0   0.0767731826 AA  
    5    0    8    0   0.0767731826 AA  
    4    0   11    0   0.0422158823 AA  
    7    0   20    0   0.0378475676 AA  
    6    0   25    0   0.0335328100 AA  
    5    0   24    0   0.0335328100 AA  
    7    0   23    0   0.0322535797 AA  
    7    0   29    0   0.0249188363 AA  
    4    0   10    0  -0.0231430984 AA  
--------------------------------------------------------------------------------
   3       1    0.47075      0.0000      0.0000      0.0000  .00000000D+00
__________________________________________________________________________
 
__________________________________________________________________________
  TDA excitation ergy:             0.470752711854 a.u.   12.8098 eV
  Total TDA electronic energy:  -112.283412736337 a.u.
 
  Dominant contributions: 
  SCF eigenvalue ordering used in list below. 
--------------------------------------------------------------------------------
    I    j    A    b
--------------------------------------------------------------------------------
    7    0   10    0   0.7220643751 AA  
    7    0   11    0   0.6450291592 AA  
    7    0   17    0  -0.1798479797 AA  
    7    0   14    0  -0.0990868471 AA  
    7    0   20    0  -0.0903276143 AA  
    6    0    9    0   0.0552328651 AA  
    5    0    8    0   0.0552328651 AA  
    4    0   10    0   0.0415811352 AA  
    6    0   16    0   0.0278689040 AA  
    5    0   15    0   0.0278689040 AA  
    4    0   14    0   0.0249643190 AA  
    7    0   23    0  -0.0232832236 AA  
    4    0   11    0  -0.0222067373 AA  
    4    0   17    0  -0.0187957736 AA  
    4    0   26    0  -0.0114798471 AA  
--------------------------------------------------------------------------------
   4       1    0.54584      0.0000      0.0000      0.0000  .00000000D+00
__________________________________________________________________________
 
__________________________________________________________________________
  TDA excitation ergy:             0.545836799762 a.u.   14.8530 eV
  Total TDA electronic energy:  -112.208328648428 a.u.
 
  Dominant contributions: 
  SCF eigenvalue ordering used in list below. 
--------------------------------------------------------------------------------
    I    j    A    b
--------------------------------------------------------------------------------
    6    0    9    0   0.6040809392 AA  
    5    0    8    0   0.6040802402 AA  
    7    0   14    0  -0.2933673177 AA  
    7    0   10    0  -0.2247074025 AA  
    4    0   10    0  -0.1646720007 AA  
    7    0   20    0  -0.1351996178 AA  
    5    0   13    0   0.1334465621 AA  
    6    0   12    0   0.1334455191 AA  
    7    0   17    0  -0.1051611047 AA  
    4    0   17    0   0.0959183686 AA  
    7    0   29    0   0.0692526025 AA  
    4    0   20    0  -0.0680512067 AA  
    7    0   11    0   0.0627385211 AA  
    7    0   26    0  -0.0498482296 AA  
    4    0   14    0  -0.0495631516 AA  
--------------------------------------------------------------------------------
   1       2    0.33135      0.0000      0.0000      0.0000  .00000000D+00
__________________________________________________________________________
 
__________________________________________________________________________
  TDA excitation ergy:             0.331349092049 a.u.    9.0165 eV
  Total TDA electronic energy:  -112.422816356141 a.u.
 
  Dominant contributions: 
  SCF eigenvalue ordering used in list below. 
--------------------------------------------------------------------------------
    I    j    A    b
--------------------------------------------------------------------------------
    7    0   13    0  -0.7157349991 AA  
    7    0    8    0  -0.6267389634 AA  
    7    0   15    0  -0.2039535127 AA  
    4    0   13    0  -0.1216920543 AA  
    7    0   24    0  -0.1016593586 AA  
    4    0    8    0  -0.0805773163 AA  
    7    0   21    0  -0.0684051206 AA  
    4    0   15    0  -0.0525572391 AA  
    3    0   13    0   0.0494712499 AA  
    4    0   21    0  -0.0458803592 AA  
    7    0   31    0  -0.0408846602 AA  
    6    0   18    0   0.0261761393 AA  
    5    0   19    0   0.0261761393 AA  
    3    0    8    0   0.0258142108 AA  
    4    0   36    0   0.0252333560 AA  
--------------------------------------------------------------------------------
   2       2    0.47644      0.0000      0.0000      0.0000  .00000000D+00
__________________________________________________________________________
 
__________________________________________________________________________
  TDA excitation ergy:             0.476436230210 a.u.   12.9645 eV
  Total TDA electronic energy:  -112.277729217981 a.u.
 
  Dominant contributions: 
  SCF eigenvalue ordering used in list below. 
--------------------------------------------------------------------------------
    I    j    A    b
--------------------------------------------------------------------------------
    7    0    8    0   0.7578415900 AA  
    7    0   13    0  -0.6259429581 AA  
    7    0   24    0  -0.1183541439 AA  
    5    0   10    0   0.0997908390 AA  
    7    0   21    0  -0.0703540418 AA  
    4    0    8    0  -0.0391679313 AA  
    4    0   13    0  -0.0275592347 AA  
    5    0   17    0  -0.0268580878 AA  
    5    0   11    0  -0.0205261550 AA  
    7    0   31    0  -0.0201685234 AA  
    3    0   13    0   0.0146082936 AA  
    5    0   14    0  -0.0141969133 AA  
    4    0   15    0   0.0115664757 AA  
    5    0   19    0   0.0099976579 AA  
    6    0   18    0   0.0099976579 AA  
--------------------------------------------------------------------------------
   3       2    0.51485      0.0000      0.0000      0.0000  .00000000D+00
__________________________________________________________________________
 
__________________________________________________________________________
  TDA excitation ergy:             0.514849801681 a.u.   14.0098 eV
  Total TDA electronic energy:  -112.239315646510 a.u.
 
  Dominant contributions: 
  SCF eigenvalue ordering used in list below. 
--------------------------------------------------------------------------------
    I    j    A    b
--------------------------------------------------------------------------------
    5    0   10    0  -0.9515832020 AA  
    5    0   17    0   0.2753431236 AA  
    7    0    8    0   0.0752273207 AA  
    7    0   13    0  -0.0648924752 AA  
    4    0    8    0  -0.0374868184 AA  
    7    0   15    0  -0.0324004463 AA  
    4    0   13    0  -0.0314301342 AA  
    5    0   20    0  -0.0282845477 AA  
    5    0   23    0   0.0275185055 AA  
    5    0   14    0   0.0262803630 AA  
    4    0   15    0  -0.0241231284 AA  
    5    0   32    0  -0.0222267996 AA  
    5    0   29    0  -0.0210517030 AA  
    7    0   21    0  -0.0193677114 AA  
    5    0   11    0   0.0185822523 AA  
--------------------------------------------------------------------------------
   4       2    0.57051      0.0000      0.0000      0.0000  .00000000D+00
__________________________________________________________________________
 
__________________________________________________________________________
  TDA excitation ergy:             0.570513579713 a.u.   15.5245 eV
  Total TDA electronic energy:  -112.183651868477 a.u.
 
  Dominant contributions: 
  SCF eigenvalue ordering used in list below. 
--------------------------------------------------------------------------------
    I    j    A    b
--------------------------------------------------------------------------------
    4    0    8    0   0.5781928860 AA  
    4    0   13    0   0.5541850980 AA  
    5    0   11    0   0.3205560592 AA  
    7    0   15    0   0.3044100162 AA  
    4    0   15    0   0.2718964853 AA  
    7    0   13    0  -0.1822969440 AA  
    4    0   21    0   0.0978843528 AA  
    7    0    8    0  -0.0906913802 AA  
    6    0   18    0   0.0653020513 AA  
    5    0   19    0   0.0653020513 AA  
    7    0   21    0   0.0650813301 AA  
    5    0   10    0  -0.0609814631 AA  
    5    0   20    0  -0.0497239136 AA  
    4    0   31    0   0.0475845479 AA  
    4    0   36    0  -0.0441211838 AA  
--------------------------------------------------------------------------------
   1       3    0.33135      0.0000      0.0000      0.0000  .00000000D+00
__________________________________________________________________________
 
__________________________________________________________________________
  TDA excitation ergy:             0.331349092049 a.u.    9.0165 eV
  Total TDA electronic energy:  -112.422816356141 a.u.
 
  Dominant contributions: 
  SCF eigenvalue ordering used in list below. 
--------------------------------------------------------------------------------
    I    j    A    b
--------------------------------------------------------------------------------
    7    0   12    0  -0.7157349991 AA  
    7    0    9    0  -0.6267389634 AA  
    7    0   16    0  -0.2039535127 AA  
    4    0   12    0  -0.1216920543 AA  
    7    0   25    0  -0.1016593586 AA  
    4    0    9    0  -0.0805773163 AA  
    7    0   22    0  -0.0684051206 AA  
    4    0   16    0  -0.0525572391 AA  
    3    0   12    0   0.0494712499 AA  
    4    0   22    0  -0.0458803592 AA  
    7    0   30    0  -0.0408846602 AA  
    6    0   19    0  -0.0261761393 AA  
    5    0   18    0   0.0261761393 AA  
    3    0    9    0   0.0258142108 AA  
    4    0   35    0   0.0252333560 AA  
--------------------------------------------------------------------------------
   2       3    0.47644      0.0000      0.0000      0.0000  .00000000D+00
__________________________________________________________________________
 
__________________________________________________________________________
  TDA excitation ergy:             0.476436230210 a.u.   12.9645 eV
  Total TDA electronic energy:  -112.277729217981 a.u.
 
  Dominant contributions: 
  SCF eigenvalue ordering used in list below. 
--------------------------------------------------------------------------------
    I    j    A    b
--------------------------------------------------------------------------------
    7    0    9    0   0.7578415900 AA  
    7    0   12    0  -0.6259429581 AA  
    7    0   25    0  -0.1183541439 AA  
    6    0   10    0   0.0997908390 AA  
    7    0   22    0  -0.0703540418 AA  
    4    0    9    0  -0.0391679313 AA  
    4    0   12    0  -0.0275592347 AA  
    6    0   17    0  -0.0268580878 AA  
    6    0   11    0  -0.0205261550 AA  
    7    0   30    0  -0.0201685234 AA  
    3    0   12    0   0.0146082936 AA  
    6    0   14    0  -0.0141969133 AA  
    4    0   16    0   0.0115664757 AA  
    6    0   19    0  -0.0099976579 AA  
    5    0   18    0   0.0099976579 AA  
--------------------------------------------------------------------------------
   3       3    0.51485      0.0000      0.0000      0.0000  .00000000D+00
__________________________________________________________________________
 
__________________________________________________________________________
  TDA excitation ergy:             0.514849801681 a.u.   14.0098 eV
  Total TDA electronic energy:  -112.239315646510 a.u.
 
  Dominant contributions: 
  SCF eigenvalue ordering used in list below. 
--------------------------------------------------------------------------------
    I    j    A    b
--------------------------------------------------------------------------------
    6    0   10    0  -0.9515832020 AA  
    6    0   17    0   0.2753431236 AA  
    7    0    9    0   0.0752273207 AA  
    7    0   12    0  -0.0648924752 AA  
    4    0    9    0  -0.0374868184 AA  
    7    0   16    0  -0.0324004463 AA  
    4    0   12    0  -0.0314301342 AA  
    6    0   20    0  -0.0282845477 AA  
    6    0   23    0   0.0275185055 AA  
    6    0   14    0   0.0262803630 AA  
    4    0   16    0  -0.0241231284 AA  
    6    0   32    0  -0.0222267996 AA  
    6    0   29    0  -0.0210517030 AA  
    7    0   22    0  -0.0193677114 AA  
    6    0   11    0   0.0185822523 AA  
--------------------------------------------------------------------------------
   4       3    0.57051      0.0000      0.0000      0.0000  .00000000D+00
__________________________________________________________________________
 
__________________________________________________________________________
  TDA excitation ergy:             0.570513579713 a.u.   15.5245 eV
  Total TDA electronic energy:  -112.183651868477 a.u.
 
  Dominant contributions: 
  SCF eigenvalue ordering used in list below. 
--------------------------------------------------------------------------------
    I    j    A    b
--------------------------------------------------------------------------------
    4    0    9    0   0.5781928860 AA  
    4    0   12    0   0.5541850980 AA  
    6    0   11    0   0.3205560592 AA  
    7    0   16    0   0.3044100162 AA  
    4    0   16    0   0.2718964853 AA  
    7    0   12    0  -0.1822969440 AA  
    4    0   22    0   0.0978843528 AA  
    7    0    9    0  -0.0906913802 AA  
    5    0   18    0   0.0653020513 AA  
    6    0   19    0  -0.0653020513 AA  
    7    0   22    0   0.0650813301 AA  
    6    0   10    0  -0.0609814631 AA  
    6    0   20    0  -0.0497239136 AA  
    4    0   30    0   0.0475845479 AA  
    4    0   35    0  -0.0441211838 AA  
--------------------------------------------------------------------------------
   1       4    0.35350      0.0000      0.0000      0.0000  .00000000D+00
__________________________________________________________________________
 
__________________________________________________________________________
  TDA excitation ergy:             0.353499383667 a.u.    9.6192 eV
  Total TDA electronic energy:  -112.400666064523 a.u.
 
  Dominant contributions: 
  SCF eigenvalue ordering used in list below. 
--------------------------------------------------------------------------------
    I    j    A    b
--------------------------------------------------------------------------------
    5    0   12    0  -0.5113000105 AA  
    6    0   13    0   0.5112995341 AA  
    5    0    9    0  -0.4298891950 AA  
    6    0    8    0   0.4298879139 AA  
    6    0   15    0   0.1983611636 AA  
    5    0   16    0  -0.1983602554 AA  
    6    0   21    0   0.0935492523 AA  
    5    0   22    0  -0.0935490495 AA  
    6    0   24    0   0.0579910848 AA  
    5    0   25    0  -0.0579900535 AA  
    5    0   35    0   0.0362258711 AA  
    6    0   36    0  -0.0362256525 AA  
    5    0   30    0  -0.0290124636 AA  
    6    0   31    0   0.0290120605 AA  
    6    0   37    0   0.0123672442 AA  
--------------------------------------------------------------------------------
   2       4    0.36886      0.0000      0.0000      0.0000  .00000000D+00
__________________________________________________________________________
 
__________________________________________________________________________
  TDA excitation ergy:             0.368864209560 a.u.   10.0373 eV
  Total TDA electronic energy:  -112.385301238630 a.u.
 
  Dominant contributions: 
  SCF eigenvalue ordering used in list below. 
--------------------------------------------------------------------------------
    I    j    A    b
--------------------------------------------------------------------------------
    6    0   13    0  -0.5091531229 AA  
    5    0   12    0  -0.5091529201 AA  
    5    0    9    0  -0.4381548998 AA  
    6    0    8    0  -0.4381536307 AA  
    6    0   15    0  -0.1906282923 AA  
    5    0   16    0  -0.1906236206 AA  
    6    0   21    0  -0.0871945138 AA  
    5    0   22    0  -0.0871939225 AA  
    5    0   25    0  -0.0542976368 AA  
    6    0   24    0  -0.0542964706 AA  
    6    0   36    0   0.0318673652 AA  
    5    0   35    0   0.0318657993 AA  
    6    0   31    0  -0.0248243672 AA  
    5    0   30    0  -0.0248228987 AA  
    3    0   18    0  -0.0112345110 AA  
--------------------------------------------------------------------------------
   3       4    0.56292      0.0000      0.0000      0.0000  .00000000D+00
__________________________________________________________________________
 
__________________________________________________________________________
  TDA excitation ergy:             0.562915802446 a.u.   15.3177 eV
  Total TDA electronic energy:  -112.191249645744 a.u.
 
  Dominant contributions: 
  SCF eigenvalue ordering used in list below. 
--------------------------------------------------------------------------------
    I    j    A    b
--------------------------------------------------------------------------------
    5    0    9    0   0.4894702301 AA  
    6    0    8    0   0.4894700030 AA  
    5    0   12    0  -0.4752739816 AA  
    6    0   13    0  -0.4752707993 AA  
    5    0   16    0   0.1674591177 AA  
    6    0   15    0   0.1674548639 AA  
    6    0   24    0  -0.0742030116 AA  
    5    0   25    0  -0.0742016977 AA  
    7    0   18    0   0.0360200197 AA  
    5    0   30    0   0.0109443886 AA  
    6    0   31    0   0.0109439908 AA  
    6    0   21    0  -0.0092535713 AA  
    5    0   22    0  -0.0092510147 AA  
    3    0   18    0   0.0089276858 AA  
    5    0   38    0  -0.0067254340 AA  
--------------------------------------------------------------------------------
   4       4    0.56592      0.0000      0.0000      0.0000  .00000000D+00
__________________________________________________________________________
 
__________________________________________________________________________
  TDA excitation ergy:             0.565915055756 a.u.   15.3993 eV
  Total TDA electronic energy:  -112.188250392435 a.u.
 
  Dominant contributions: 
  SCF eigenvalue ordering used in list below. 
--------------------------------------------------------------------------------
    I    j    A    b
--------------------------------------------------------------------------------
    6    0    8    0   0.4969336119 AA  
    5    0    9    0  -0.4969319550 AA  
    6    0   13    0  -0.4705899501 AA  
    5    0   12    0   0.4705881097 AA  
    6    0   15    0   0.1607470889 AA  
    5    0   16    0  -0.1607456630 AA  
    6    0   24    0  -0.0737318747 AA  
    5    0   25    0   0.0737292050 AA  
    6    0   31    0   0.0115018317 AA  
    5    0   30    0  -0.0115015858 AA  
    6    0   21    0  -0.0110563157 AA  
    5    0   22    0   0.0110559740 AA  
    6    0   37    0  -0.0070444792 AA  
    5    0   38    0   0.0070441239 AA  
    5    0   35    0   0.0045111306 AA  
--------------------------------------------------------------------------------
__________________________________________________________________________
  @DOEOMEE-I, Excitation energies computed by the EOMEE-CC2/CC2-LR method.
  @DOEOMEE-I, right-hand eigenvectors will be computed.
  Beginning symmetry block   1.   4 roots requested.
  @DOEOMEE-I, Matrix dimension for diagonalization:    10338
  Creating initial guess for root
________________________________________________________________________
            Subspace          Eigenvalue           
 Iteration  Dimension   (a.u.)         (eV)       Overlap      Residual
________________________________________________________________________
  @NEWGES-I, Using TDA initial guess.
  1   1  0.5057012782D+00  0.1376083137D+02  0.0000000000D+00  0.2297181836D+00
  2   2  0.3958046290D+00  0.1077039151D+02  0.9732737821D+00  0.8163454416D-01
  3   3  0.3933724431D+00  0.1070420837D+02  0.9979113437D+00  0.2756641103D-01
  4   4  0.3927727537D+00  0.1068788999D+02  0.9995991158D+00  0.1142001823D-01
  5   5  0.3926664970D+00  0.1068499860D+02  0.9999179005D+00  0.3291293035D-02
  L-O-C-K-I-N-G O-N R-O-O-T 
  6   6  0.3926633604D+00  0.1068491325D+02  0.9999803171D+00  0.1186373790D-02
  7   7  0.3926633900D+00  0.1068491405D+02  0.9999983935D+00  0.4245273899D-03
  8   8  0.3926642461D+00  0.1068493735D+02  0.9999997952D+00  0.1521392874D-03
  9   9  0.3926643295D+00  0.1068493962D+02  0.9999999835D+00  0.4518822764D-04
 10  10  0.3926643878D+00  0.1068494120D+02  0.9999999984D+00  0.1651502745D-04
 11  11  0.3926644182D+00  0.1068494203D+02  0.9999999999D+00  0.8753530100D-05
  Converged eigenvalue:   0.392664418176915       a.u.
   Total EOMEE-CC2 electronic energy     -112.668942916329740 a.u.
  Converged eigenvector 
  SCF eigenvalue ordering used in list below. 
--------------------------------------------------------------------------------
    I    j    A    b
--------------------------------------------------------------------------------
    6    0   12    0   0.3598252004 AA  
    5    0   13    0  -0.3598221894 AA  
    6    0    9    0   0.3046467262 AA  
    5    0    8    0  -0.3046460196 AA  
    6    0   16    0   0.1011058515 AA  
    5    0   15    0  -0.1011052781 AA  
    5    5   13   13   0.0589362314 ABAB
    6    6   12   12  -0.0589359059 ABAB
    6    0   25    0   0.0455999907 AA  
    5    0   24    0  -0.0455998452 AA  
    5    5   13    8   0.0410206724 ABAB
    5    5    8   13   0.0410206724 ABAB
    6    6   12    9  -0.0410204831 ABAB
    6    6    9   12  -0.0410204831 ABAB
    6    0   22    0   0.0402332812 AA  
--------------------------------------------------------------------------------
  Converged eigenvector, normalized to one 
  SCF eigenvalue ordering used in list below. 
--------------------------------------------------------------------------------
    I    j    A    b
--------------------------------------------------------------------------------
    6    0   12    0   0.3598252004 AA  
    5    0   13    0  -0.3598221894 AA  
    6    0    9    0   0.3046467262 AA  
    5    0    8    0  -0.3046460196 AA  
    6    0   16    0   0.1011058515 AA  
    5    0   15    0  -0.1011052781 AA  
    5    5   13   13   0.0589362314 ABAB
    6    6   12   12  -0.0589359059 ABAB
    6    0   25    0   0.0455999907 AA  
    5    0   24    0  -0.0455998452 AA  
    5    5   13    8   0.0410206724 ABAB
    5    5    8   13   0.0410206724 ABAB
    6    6   12    9  -0.0410204831 ABAB
    6    6    9   12  -0.0410204831 ABAB
    6    0   22    0   0.0402332812 AA  
--------------------------------------------------------------------------------

  Eigenvector is saved on CCRE_1_1  

  Adding new vector to expansion space.
  Guess for next eigenvalue   0.454063220426469     
 12  12  0.4965282884D+00  0.1351122162D+02  0.9997780765D+00  0.6062967120D+00
 13  13  0.4283414573D+00  0.1165576362D+02  0.9612429999D+00  0.3016015915D+00
 14  14  0.4181887782D+00  0.1137949518D+02  0.9865573307D+00  0.5321135406D-01
 15  15  0.4155691594D+00  0.1130821172D+02  0.9929460123D+00  0.8490371665D-01
 16  16  0.4117190467D+00  0.1120344483D+02  0.9736781164D+00  0.3430177137D-01
[...]
    4    0   12    0   0.0838780302 AA  
    7    0   25    0   0.0786949681 AA  
    6    0   10    0  -0.0429973430 AA  
    7    0   22    0   0.0402367110 AA  
    7    7    9   11  -0.0397318475 ABAB
    7    7   11    9  -0.0397318475 ABAB
    7    0   16    0  -0.0353032975 AA  
    7    7    9   10   0.0352422189 ABAB
    7    7   10    9   0.0352422189 ABAB
    5    7   13    9  -0.0349922978 ABAB
    7    5    9   13  -0.0349922978 ABAB
    6    4   12   12  -0.0317024369 ABAB
    4    6   12   12  -0.0317024369 ABAB
--------------------------------------------------------------------------------
  Converged eigenvector, normalized to one 
  SCF eigenvalue ordering used in list below. 
--------------------------------------------------------------------------------
    I    j    A    b
--------------------------------------------------------------------------------
    7    0   12    0   0.4762705209 AA  
    7    0    9    0  -0.4748631654 AA  
    4    0   12    0   0.0838780302 AA  
    7    0   25    0   0.0786949681 AA  
    6    0   10    0  -0.0429973430 AA  
    7    0   22    0   0.0402367110 AA  
    7    7    9   11  -0.0397318475 ABAB
    7    7   11    9  -0.0397318475 ABAB
    7    0   16    0  -0.0353032975 AA  
    7    7    9   10   0.0352422189 ABAB
    7    7   10    9   0.0352422189 ABAB
    5    7   13    9  -0.0349922978 ABAB
    7    5    9   13  -0.0349922978 ABAB
    6    4   12   12  -0.0317024369 ABAB
    4    6   12   12  -0.0317024369 ABAB
--------------------------------------------------------------------------------

  Eigenvector is saved on CCRE_3_2  

  Adding new vector to expansion space.
  Guess for next eigenvalue   0.514849801680796     
 27  27  0.4990937178D+00  0.1358103051D+02  0.7005877037D+00  0.2810814761D-01
 28  28  0.4985959410D+00  0.1356748531D+02  0.9996393203D+00  0.1608911108D-01
 29  29  0.4984639881D+00  0.1356389469D+02  0.9997812167D+00  0.4536577371D-02
  L-O-C-K-I-N-G O-N R-O-O-T 
 30  30  0.4984407550D+00  0.1356326249D+02  0.9999782768D+00  0.2238317636D-02
 31  31  0.4984369523D+00  0.1356315901D+02  0.9999932846D+00  0.1289203027D-02
 32  32  0.4984371688D+00  0.1356316490D+02  0.9999964953D+00  0.6254691409D-03
 33  33  0.4984374418D+00  0.1356317233D+02  0.9999990346D+00  0.3277346156D-03
 34  34  0.4984368740D+00  0.1356315688D+02  0.9999995191D+00  0.2205759080D-03
 35  35  0.4984369209D+00  0.1356315815D+02  0.9999999100D+00  0.8064261155D-04
 36  36  0.4984369378D+00  0.1356315862D+02  0.9999999889D+00  0.3234041434D-04
 37  37  0.4984369643D+00  0.1356315934D+02  0.9999999985D+00  0.7926632822D-05
  Converged eigenvalue:   0.498436964305269       a.u.
   Total EOMEE-CC2 electronic energy     -112.563170370201391 a.u.
  Converged eigenvector 
  SCF eigenvalue ordering used in list below. 
--------------------------------------------------------------------------------
    I    j    A    b
--------------------------------------------------------------------------------
    6    0   10    0  -0.6506780990 AA  
    6    0   17    0   0.1622198321 AA  
    6    0   11    0   0.0906941616 AA  
    6    0   14    0   0.0673565677 AA  
    6    6   16   10   0.0504176621 ABAB
    6    6   10   16   0.0504176621 ABAB
    6    6    9   10   0.0495862803 ABAB
    6    6   10    9   0.0495862803 ABAB
    6    5   10   15   0.0419491841 ABAB
    5    6   15   10   0.0419491841 ABAB
    6    5   10    8   0.0407480955 ABAB
    5    6    8   10   0.0407480955 ABAB
    7    0    9    0   0.0318091597 AA  
    6    6   12   10   0.0290913453 ABAB
    6    6   10   12   0.0290913453 ABAB
--------------------------------------------------------------------------------
  Converged eigenvector, normalized to one 
  SCF eigenvalue ordering used in list below. 
--------------------------------------------------------------------------------
    I    j    A    b
--------------------------------------------------------------------------------
    6    0   10    0  -0.6506780990 AA  
    6    0   17    0   0.1622198321 AA  
    6    0   11    0   0.0906941616 AA  
    6    0   14    0   0.0673565677 AA  
    6    6   16   10   0.0504176621 ABAB
    6    6   10   16   0.0504176621 ABAB
    6    6    9   10   0.0495862803 ABAB
    6    6   10    9   0.0495862803 ABAB
    6    5   10   15   0.0419491841 ABAB
    5    6   15   10   0.0419491841 ABAB
    6    5   10    8   0.0407480955 ABAB
    5    6    8   10   0.0407480955 ABAB
    7    0    9    0   0.0318091597 AA  
    6    6   12   10   0.0290913453 ABAB
    6    6   10   12   0.0290913453 ABAB
--------------------------------------------------------------------------------

  Eigenvector is saved on CCRE_3_3  

  Adding new vector to expansion space.
  Guess for next eigenvalue   0.570513579713307     
 38  38  0.5183667412D+00  0.1410547614D+02  0.6634000102D+00  0.2815262282D-01
 39  39  0.5174688751D+00  0.1408104396D+02  0.9992764679D+00  0.1098863076D-01
 40  40  0.5173055410D+00  0.1407659941D+02  0.9998899984D+00  0.2538470721D-02
  L-O-C-K-I-N-G O-N R-O-O-T 
 41  41  0.5172804709D+00  0.1407591722D+02  0.9999953181D+00  0.7409801245D-03
 42  42  0.5172787187D+00  0.1407586954D+02  0.9999996156D+00  0.2081457557D-03
 43  43  0.5172794980D+00  0.1407589074D+02  0.9999999661D+00  0.4537057732D-04
 44  44  0.5172797487D+00  0.1407589757D+02  0.9999999988D+00  0.1287124698D-04
 45  45  0.5172797358D+00  0.1407589722D+02  0.9999999999D+00  0.3403675341D-05
  Converged eigenvalue:   0.517279735772385       a.u.
   Total EOMEE-CC2 electronic energy     -112.544327598734270 a.u.
  Converged eigenvector 
  SCF eigenvalue ordering used in list below. 
--------------------------------------------------------------------------------
    I    j    A    b
--------------------------------------------------------------------------------
    4    0    9    0  -0.4534641986 AA  
    4    0   12    0  -0.4288959623 AA  
    7    0   12    0   0.1430325962 AA  
    4    0   16    0  -0.1342086864 AA  
    6    0   11    0  -0.1013637189 AA  
    7    0   16    0  -0.0513549737 AA  
    7    0    9    0   0.0502880922 AA  
    5    0   18    0  -0.0446501674 AA  
    6    0   19    0   0.0446501674 AA  
    6    7   12   12   0.0411363149 ABAB
    7    6   12   12   0.0411363149 ABAB
    4    0   25    0  -0.0405856959 AA  
    4    0   22    0  -0.0374463530 AA  
    6    4   12   12   0.0364498366 ABAB
    4    6   12   12   0.0364498366 ABAB
--------------------------------------------------------------------------------
  Converged eigenvector, normalized to one 
  SCF eigenvalue ordering used in list below. 
--------------------------------------------------------------------------------
    I    j    A    b
--------------------------------------------------------------------------------
    4    0    9    0  -0.4534641986 AA  
    4    0   12    0  -0.4288959623 AA  
    7    0   12    0   0.1430325962 AA  
    4    0   16    0  -0.1342086864 AA  
    6    0   11    0  -0.1013637189 AA  
    7    0   16    0  -0.0513549737 AA  
    7    0    9    0   0.0502880922 AA  
    5    0   18    0  -0.0446501674 AA  
    6    0   19    0   0.0446501674 AA  
    6    7   12   12   0.0411363149 ABAB
    7    6   12   12   0.0411363149 ABAB
    4    0   25    0  -0.0405856959 AA  
    4    0   22    0  -0.0374463530 AA  
    6    4   12   12   0.0364498366 ABAB
    4    6   12   12   0.0364498366 ABAB
--------------------------------------------------------------------------------

  Eigenvector is saved on CCRE_3_4  

  Solution of   4 roots required   45 iterations.
  @DOEOMEE-I, right-hand eigenvectors will be computed.
  Beginning symmetry block   4.   4 roots requested.
  @DOEOMEE-I, Matrix dimension for diagonalization:     8778
  Creating initial guess for root
________________________________________________________________________
            Subspace          Eigenvalue           
 Iteration  Dimension   (a.u.)         (eV)       Overlap      Residual
________________________________________________________________________
  @NEWGES-I, Using TDA initial guess.
  1   1  0.4871554389D+00  0.1325617342D+02  0.0000000000D+00  0.2126563361D+00
  2   2  0.3838939854D+00  0.1044628642D+02  0.9767139413D+00  0.7153130160D-01
  3   3  0.3820270343D+00  0.1039548410D+02  0.9983580588D+00  0.2684414230D-01
  4   4  0.3815516483D+00  0.1038254819D+02  0.9996880695D+00  0.9679250980D-02
  5   5  0.3814769775D+00  0.1038051629D+02  0.9999538556D+00  0.2487895981D-02
  L-O-C-K-I-N-G O-N R-O-O-T 
  6   6  0.3814784764D+00  0.1038055708D+02  0.9999906251D+00  0.7947026809D-03
  7   7  0.3814783135D+00  0.1038055265D+02  0.9999993636D+00  0.3015103870D-03
  8   8  0.3814788652D+00  0.1038056766D+02  0.9999998873D+00  0.1059946671D-03
  9   9  0.3814789234D+00  0.1038056924D+02  0.9999999921D+00  0.2407575478D-04
 10  10  0.3814789880D+00  0.1038057100D+02  0.9999999996D+00  0.7334374320D-05
  Converged eigenvalue:   0.381478988005301       a.u.
   Total EOMEE-CC2 electronic energy     -112.680128346501363 a.u.
  Converged eigenvector 
  SCF eigenvalue ordering used in list below. 
--------------------------------------------------------------------------------
    I    j    A    b
--------------------------------------------------------------------------------
    5    0   12    0   0.3614367913 AA  
    6    0   13    0  -0.3614367054 AA  
    5    0    9    0   0.3009118410 AA  
    6    0    8    0  -0.3009117679 AA  
    5    0   16    0   0.1097963226 AA  
    6    0   15    0  -0.1097963040 AA  
    5    0   25    0   0.0471526985 AA  
    6    0   24    0  -0.0471526887 AA  
    5    0   22    0   0.0460056366 AA  
    6    0   21    0  -0.0460056286 AA  
    6    5   12   12  -0.0265142689 ABAB
    5    6   12   12  -0.0265142689 ABAB
    5    5   12   13  -0.0265142688 ABAB
    5    5   13   12  -0.0265142688 ABAB
    6    6   12   13   0.0265142626 ABAB
--------------------------------------------------------------------------------
  Converged eigenvector, normalized to one 
  SCF eigenvalue ordering used in list below. 
--------------------------------------------------------------------------------
    I    j    A    b
--------------------------------------------------------------------------------
    5    0   12    0   0.3614367913 AA  
    6    0   13    0  -0.3614367054 AA  
    5    0    9    0   0.3009118410 AA  
    6    0    8    0  -0.3009117679 AA  
    5    0   16    0   0.1097963226 AA  
    6    0   15    0  -0.1097963040 AA  
    5    0   25    0   0.0471526985 AA  
    6    0   24    0  -0.0471526887 AA  
    5    0   22    0   0.0460056366 AA  
    6    0   21    0  -0.0460056286 AA  
    6    5   12   12  -0.0265142689 ABAB
    5    6   12   12  -0.0265142689 ABAB
    5    5   12   13  -0.0265142688 ABAB
    5    5   13   12  -0.0265142688 ABAB
    6    6   12   13   0.0265142626 ABAB
--------------------------------------------------------------------------------

  Eigenvector is saved on CCRE_4_1  

  Adding new vector to expansion space.
  Guess for next eigenvalue   0.368864209560119     
 11  11  0.5057012542D+00  0.1376083071D+02  0.9999999680D+00  0.2318304885D+00
 12  12  0.3960279123D+00  0.1077646736D+02  0.9729458555D+00  0.9659863608D-01
 13  13  0.3934408447D+00  0.1070606967D+02  0.9976004852D+00  0.2935038872D-01
 14  14  0.3927847879D+00  0.1068821746D+02  0.9995701372D+00  0.1173073064D-01
 15  15  0.3926663943D+00  0.1068499580D+02  0.9999108119D+00  0.3373372576D-02
  L-O-C-K-I-N-G O-N R-O-O-T 
 16  16  0.3926632226D+00  0.1068490950D+02  0.9999807997D+00  0.1163497264D-02
 17  17  0.3926634409D+00  0.1068491544D+02  0.9999984563D+00  0.4694933419D-03
 18  18  0.3926642186D+00  0.1068493660D+02  0.9999997803D+00  0.1211262265D-03
 19  19  0.3926643553D+00  0.1068494032D+02  0.9999999895D+00  0.5351209183D-04
 20  20  0.3926643858D+00  0.1068494115D+02  0.9999999979D+00  0.1053164289D-04
 21  21  0.3926644239D+00  0.1068494219D+02  0.9999999999D+00  0.2336332214D-05
  Converged eigenvalue:   0.392664423940088       a.u.
   Total EOMEE-CC2 electronic energy     -112.668942910566571 a.u.
  Converged eigenvector 
  SCF eigenvalue ordering used in list below. 
--------------------------------------------------------------------------------
    I    j    A    b
--------------------------------------------------------------------------------
    6    0   13    0  -0.3598237083 AA  
    5    0   12    0  -0.3598237054 AA  
    6    0    8    0  -0.3046462187 AA  
    5    0    9    0  -0.3046462171 AA  
    5    0   16    0  -0.1011057763 AA  
    6    0   15    0  -0.1011057710 AA  
    5    0   25    0  -0.0456002315 AA  
    6    0   24    0  -0.0456002304 AA  
    5    0   22    0  -0.0402332393 AA  
    6    0   21    0  -0.0402332344 AA  
    6    5   13   13   0.0296250155 ABAB
    5    6   13   13   0.0296250155 ABAB
    6    5   12   12   0.0296250155 ABAB
    5    6   12   12   0.0296250155 ABAB
    6    6   12   13   0.0293110937 ABAB
--------------------------------------------------------------------------------
  Converged eigenvector, normalized to one 
  SCF eigenvalue ordering used in list below. 
--------------------------------------------------------------------------------
    I    j    A    b
--------------------------------------------------------------------------------
    6    0   13    0  -0.3598237083 AA  
    5    0   12    0  -0.3598237054 AA  
    6    0    8    0  -0.3046462187 AA  
    5    0    9    0  -0.3046462171 AA  
    5    0   16    0  -0.1011057763 AA  
    6    0   15    0  -0.1011057710 AA  
    5    0   25    0  -0.0456002315 AA  
    6    0   24    0  -0.0456002304 AA  
    5    0   22    0  -0.0402332393 AA  
    6    0   21    0  -0.0402332344 AA  
    6    5   13   13   0.0296250155 ABAB
    5    6   13   13   0.0296250155 ABAB
    6    5   12   12   0.0296250155 ABAB
    5    6   12   12   0.0296250155 ABAB
    6    6   12   13   0.0293110937 ABAB
--------------------------------------------------------------------------------

  Eigenvector is saved on CCRE_4_2  

  Adding new vector to expansion space.
  Guess for next eigenvalue   0.562915802446425     
 22  22  0.5393003579D+00  0.1467510881D+02  0.6998225311D+00  0.6590423980D-01
 23  23  0.5375014634D+00  0.1462615840D+02  0.9983506553D+00  0.1008738240D-01
  L-O-C-K-I-N-G O-N R-O-O-T 
 24  24  0.5374546272D+00  0.1462488392D+02  0.9999757782D+00  0.1550466091D-02
 25  25  0.5374505517D+00  0.1462477302D+02  0.9999988576D+00  0.5954254582D-03
 26  26  0.5374502928D+00  0.1462476598D+02  0.9999994767D+00  0.2331521758D-03
 27  27  0.5374502242D+00  0.1462476411D+02  0.9999999395D+00  0.8469241788D-04
 28  28  0.5374502928D+00  0.1462476597D+02  0.9999999969D+00  0.1503967057D-04
 29  29  0.5374502922D+00  0.1462476596D+02  0.9999999998D+00  0.9301561796D-05
  Converged eigenvalue:   0.537450292193550       a.u.
   Total EOMEE-CC2 electronic energy     -112.524157042313107 a.u.
  Converged eigenvector 
  SCF eigenvalue ordering used in list below. 
--------------------------------------------------------------------------------
    I    j    A    b
--------------------------------------------------------------------------------
    6    0    8    0  -0.3523070556 AA  
    5    0    9    0  -0.3523049141 AA  
    6    0   13    0   0.3138280901 AA  
    5    0   12    0   0.3138250192 AA  
    6    0   15    0  -0.0746631539 AA  
    5    0   16    0  -0.0746594343 AA  
    6    0   24    0   0.0549501499 AA  
    5    0   25    0   0.0549500129 AA  
    6    6    9    8   0.0320253232 ABAB
    6    6    8    9   0.0320253232 ABAB
    5    5    9    8   0.0320251171 ABAB
    5    5    8    9   0.0320251171 ABAB
    6    5    8    8   0.0289141540 ABAB
    5    6    8    8   0.0289141540 ABAB
    6    5    9    9   0.0289139480 ABAB
--------------------------------------------------------------------------------
  Converged eigenvector, normalized to one 
  SCF eigenvalue ordering used in list below. 
--------------------------------------------------------------------------------
    I    j    A    b
--------------------------------------------------------------------------------
    6    0    8    0  -0.3523070556 AA  
    5    0    9    0  -0.3523049141 AA  
    6    0   13    0   0.3138280901 AA  
    5    0   12    0   0.3138250192 AA  
    6    0   15    0  -0.0746631539 AA  
    5    0   16    0  -0.0746594343 AA  
    6    0   24    0   0.0549501499 AA  
    5    0   25    0   0.0549500129 AA  
    6    6    9    8   0.0320253232 ABAB
    6    6    8    9   0.0320253232 ABAB
    5    5    9    8   0.0320251171 ABAB
    5    5    8    9   0.0320251171 ABAB
    6    5    8    8   0.0289141540 ABAB
    5    6    8    8   0.0289141540 ABAB
    6    5    9    9   0.0289139480 ABAB
--------------------------------------------------------------------------------

  Eigenvector is saved on CCRE_4_3  

  Adding new vector to expansion space.
  Guess for next eigenvalue   0.565915055755791     
 30  30  0.5430625607D+00  0.1477748355D+02  0.6909807692D+00  0.6787076687D-01
 31  31  0.5406686867D+00  0.1471234293D+02  0.9977108386D+00  0.1156236843D-01
  L-O-C-K-I-N-G O-N R-O-O-T 
 32  32  0.5406252535D+00  0.1471116105D+02  0.9999620942D+00  0.1509979322D-02
 33  33  0.5406233496D+00  0.1471110924D+02  0.9999994106D+00  0.1780992793D-03
 34  34  0.5406233900D+00  0.1471111034D+02  0.9999999916D+00  0.1770169207D-04
 35  35  0.5406234131D+00  0.1471111097D+02  0.9999999998D+00  0.4307294855D-05
  Converged eigenvalue:   0.540623413127563       a.u.
   Total EOMEE-CC2 electronic energy     -112.520983921379099 a.u.
  Converged eigenvector 
  SCF eigenvalue ordering used in list below. 
--------------------------------------------------------------------------------
    I    j    A    b
--------------------------------------------------------------------------------
    5    0    9    0   0.3559543318 AA  
    6    0    8    0  -0.3559540929 AA  
    5    0   12    0  -0.3120734496 AA  
    6    0   13    0   0.3120731945 AA  
    6    0   15    0  -0.0672674124 AA  
    5    0   16    0   0.0672669699 AA  
    5    0   25    0  -0.0535667490 AA  
    6    0   24    0   0.0535664521 AA  
    5    5    9    8  -0.0287076906 ABAB
    5    5    8    9  -0.0287076906 ABAB
    6    5    9    9  -0.0287076629 ABAB
    5    6    9    9  -0.0287076629 ABAB
    6    5    8    8   0.0287076488 ABAB
    5    6    8    8   0.0287076488 ABAB
    6    6    9    8   0.0287076211 ABAB
--------------------------------------------------------------------------------
  Converged eigenvector, normalized to one 
  SCF eigenvalue ordering used in list below. 
--------------------------------------------------------------------------------
    I    j    A    b
--------------------------------------------------------------------------------
    5    0    9    0   0.3559543318 AA  
    6    0    8    0  -0.3559540929 AA  
    5    0   12    0  -0.3120734496 AA  
    6    0   13    0   0.3120731945 AA  
    6    0   15    0  -0.0672674124 AA  
    5    0   16    0   0.0672669699 AA  
    5    0   25    0  -0.0535667490 AA  
    6    0   24    0   0.0535664521 AA  
    5    5    9    8  -0.0287076906 ABAB
    5    5    8    9  -0.0287076906 ABAB
    6    5    9    9  -0.0287076629 ABAB
    5    6    9    9  -0.0287076629 ABAB
    6    5    8    8   0.0287076488 ABAB
    5    6    8    8   0.0287076488 ABAB
    6    6    9    8   0.0287076211 ABAB
--------------------------------------------------------------------------------

  Eigenvector is saved on CCRE_4_4  

  Solution of   4 roots required   35 iterations.
 @CHECKOUT-I, Total execution time (CPU/WALL):       20.21/       3.32 seconds.
--executable xvee finished with status     0 in        3.86 seconds (walltime).
  The final electronic energy is      -112.520983921379099 a.u. 
  This computation required                           11.99 seconds (walltime).
