 --invoking executable--
/home/CEISAM/blondel-a/soft/cfour2.1/cfour2.1-serial-mkl/bin/xjoda


   *************************************************************************
         <<<     CCCCCC     CCCCCC   |||     CCCCCC     CCCCCC   >>>
       <<<      CCC        CCC       |||    CCC        CCC         >>>
      <<<      CCC        CCC        |||   CCC        CCC            >>>
    <<<        CCC        CCC        |||   CCC        CCC              >>>
      <<<      CCC        CCC        |||   CCC        CCC            >>>
       <<<      CCC        CCC       |||    CCC        CCC         >>>
         <<<     CCCCCC     CCCCCC   |||     CCCCCC     CCCCCC   >>>
   *************************************************************************

     ****************************************************************
     * CFOUR Coupled-Cluster techniques for Computational Chemistry *
     ****************************************************************
 

   Department of Chemistry                Institut fuer Physikalische Chemie
   University of Florida                  Universitaet Mainz
   Gainesville, FL 32611, USA             D-55099 Mainz, Germany

   Department of Chemistry                Fakultaet fuer Chemie und Biowiss.
   Johns Hopkins University               Karlsruher Institut fuer Technologie
   Baltimore, MD 21218, USA               D-76131 Karlsruhe, Germany

   Department of Chemistry                Department of Physical Chemistry
   Southern Methodist University          Eotvos Lorand University
   Dallas, TX 75275, USA                  H-1053 Budapest, Hungary

 
                       Version 2.1
 
                     cribbar038                                        
                     Tue Mar 16 17:31:32 CET 2021                      
                     integer*8 version is running
 
********************************************************************************
*                          Input from ZMAT file                                *
********************************************************************************
Ketene -GS                                                                      
C     0.0000000000            0.0000000000           -1.2494205467              
O     0.0000000000            0.0000000000            0.8926669184              
                                                                                
*CFOUR(COORD=CARTESIAN,UNITS=BOHR                                               
       MEMORY=250,MEM_UNIT=GB,CC_PROG=NCC                                       
       FROZEN_CORE=1                                                            
       CALC=CC4,BASIS=AUG-PVTZ                                                  
       SCF_CONV=8,CC_CONV=7,ESTATE_CONV=5,ESTATE_MAXCYC=120                     
       EXCITE=EOMEE,ESTATE_SYM=3/2/0/2)                                         
                                                                                
********************************************************************************
    -------------------------------------------------------------------
                    CFOUR Control Parameters 
    -------------------------------------------------------------------
        External           Internal           Value            Units
          Name               Name
    -------------------------------------------------------------------
       ABCDTYPE             IABCDT         STANDARD    [  0]    ***   
       ANHARMONIC           IANHAR         OFF         [  0]    ***   
       ANH_ALGORIT          IANALG         STANDARD    [  0]    ***   
       ANH_DERIVAT          IANDER         SECOND      [  1]    ***   
       ANH_MODE             ANHMOD         VIBRATION   [  0]    ***   
       ANH_STEPSIZ          ICUBST             50000          x 10-6  
       ANH_SYMMETR          IANHSM         ABELIAN     [  0]    ***   
       AO_LADDERS           IAOLAD         SINGLEPASS  [  1]    ***   
       AV_SCF               IAVSCF         OFF         [  0]    ***   
       BASIS                IBASIS         AUG-PVTZ    [ 34]    ***   
       BOTHVECTORS          BOTHVC         OFF         [  0]    ***   
       BOX_POTENT           IPIAB          OFF         [  0]    ***   
       BREIT                IBREIT         OFF         [  0]    ***   
       BRUCK_CONV           IBRTOL          10D-  4             ***   
       BRUECKNER            IBRKNR         OFF         [  0]    ***   
       BUFFERSIZE           IBUFFS              4096            ***   
       CACHE_RECS           ICHREC             10               ***   
       CALCLEVEL            ICLLVL         CC4         [ 52]    ***   
       CCORBOPT             ICCORB         OFF         [  0]  x 0.01  
       CC_CONV              ICCCNV          10D-  7             ***   
       CC_EXPORDER          ICCEOR              5               ***   
       CC_EXTRAPOL          ICCEXT         DIIS        [  1]    ***   
       CC_GUESS             ICCGES         MP2         [  0]    ***   
       CC_MAXCYC            ICCCYC            100              cycles 
       CC_PROGRAM           ICCPRO         NCC         [  5]    ***   
       CHARGE               ICHRGE              0               ***   
       CHOLESKY             ICHOLE         OFF         [  0]    ***   
       CIS_CONV             ICISTL              5               ***   
       COMM_SIZE            IPSIZE            ***               ***   
       CONSTANT             ICONST         OLD         [  1]    ***   
       CONTINUUM            ICONTU         NONE        [  0]    ***   
       CONTRACTION          ICNTYP         GENERAL     [  1]    ***   
       COORDINATES          ICOORD         CARTESIAN   [  1]    ***   
       CPHF_CONVER          ICPHFT          10D- 16             ***   
       CPHF_MAXCYC          ICPHFC             64              cycles 
       CUBIC                ICUBIC         OFF         [  0]    ***   
       CURVILINEAR          ICURVY         OFF         [  0]    ***   
       DBOC                 IDBOC          OFF         [  0]    ***   
       DCT                  IDCT           OFF         [  0]    ***   
       DERIV_LEV            IDRLVL         ZERO        [  0]    ***   
       DEVMEM_SIZE          IDVMEM         *********           MByte  
       DIAG_MRCC            IEOMST          10D-  0             ***   
       DIFF_TYPE            IDIFTY         RELAXED     [  0]    ***   
       DIRECT               IDIRCT         OFF         [  0]    ***   
       DROPMO               IDRPMO      NONE         
       ECP                  IECP           OFF         [  0]    ***   
       EIGENVECTOR          IVEC                1               ***   
       EL_ANHARM            IELANH         OFF         [  0]    ***   
       EOMFOLLOW            IEOMSR         ENERGY      [  0]    ***   
       EOMIP                IEOMIP         OFF         [  0]    ***   
       EOMLEVEL             HBARFM         SAME        [  0]    ***   
       EOM_MRCC             IMRCCE         NEW         [  1]    ***   
       EOM_NONIT            EOMNON         OFF         [  0]    ***   
       EOM_NSING            IEOMSI          10D-  0             ***   
       EOM_NSTATES          IMRCCD         DAVIDSON    [  0]    ***   
       EOM_NTRIP            IEOMTR          10D-  0             ***   
       EOM_ORDER            IEXORD         ENERGY      [  0]    ***   
       EOM_PROPSTA          IEOMST              0               ***   
       ESTATE_CONV          IEXTOL          10D-  5             ***   
       ESTATE_DIAG          IEXDIG         ITERATIVE   [  0]    ***   
       ESTATE_LOCK          IESLOC         ON          [  1]    ***   
       ESTATE_MAXC          IEXMXC            120               ***   
       ESTATE_PROP          IEXPRP         OFF         [  0]    ***   
       ESTATE_SYM           IEXSYM   3,  2,  0,  2,
       EVAL_HESS            IRECAL              0            # of cyc.
       EXCITATION           IEXCIT              0               ***   
       EXCITE               IEXCIT         EOMEE       [  3]    ***   
       EXTERN_POT           IEXPOT         OFF         [  0]    ***   
       FCGRADNEW            IFCGNW         OFF         [  0]    ***   
       FC_FIELD             IFINFC              0             x 10-6  
       FD_CALTYPE           IFDCAL         GRADONLY    [  0]    ***   
       FD_PROJECT           IFDPRJ         OFF         [  1]    ***   
       FD_STEPSIZE          IDISFD              0            10-4 bohr
       FD_USEGROUP          IFDGRP         FULL        [  0]    ***   
       FILE_RECSIZ          IFLREC              4096           words  
       FINITE_PERT          IFIPER              0             x 10-6  
       FIXGEOM              IFIXGM         OFF         [  0]    ***   
       FOCK                 IFOCK          AO          [  1]    ***   
       FREQ_ALGORI          IVIALG         STANDARD    [  0]    ***   
       FROZEN_CORE          IFROCO         ON          [  1]    ***   
       GAMMA_ABCD           IGABCD         STORE       [  0]    ***   
       GAMMA_ABCI           IGABCI         STORE       [  0]    ***   
       GENBAS_1             IGNBS1              0               ***   
       GENBAS_2             IGNBS2              0               ***   
       GENBAS_3             IGNBS3              0               ***   
       GENBAS_4             IGNBS4              0               ***   
       GEO_CONV             ICONTL              5              H/bohr 
       GEO_MAXCYC           IOPTCY             50               ***   
       GEO_MAXSTEP          IMXSTP            300            millibohr
       GEO_METHOD           INR            SINGLE_POINT[  5]    ***   
       GIAO                 IGIAO          OFF         [  1]    ***   
       GIMIC                IGIMIC         OFF         [  0]    ***   
       GRID                 IGRID          OFF         [  0]    ***   
       GRID_ALGO            IGALGO         SERIAL      [  0]    ***   
       GUESS                IGUESS         MOREAD      [  0]    ***   
       HBAR                 IHBAR          ON          [  1]    ***   
       HESS_TYPE            IHESTP         SCF         [  0]    ***   
       HF2_FILE             IHF2Fl         USE         [  1]    ***   
       HFSTABILITY          ISTABL         OFF         [  0]    ***   
       INCORE               INCORE         OFF         [  0]    ***   
       INPUT_MRCC           IMRCC          ON          [  1]    ***   
       INTEGRALS            INTTYP         VMOL        [  1]    ***   
       JODA_PRINT           IJPRNT              0               ***   
       KEYWORD_OUT          IDMPKW         NO          [  0]    ***   
       LINDEP_TOL           ILINDP              8               ***   
       LINEQ_CONV           IZTACN          10D-  7           cycles  
       LINEQ_EXPOR          ILMAXD              5               ***   
       LINEQ_MAXCY          ILMAXC            100               ***   
       LINEQ_TYPE           ILTYPE         DIIS        [  1]    ***   
       LOCK_ORBOCC          ILOCOC         OFF         [  0]    ***   
       MEMORY_SIZE          IMEMSZ         *********           words  
       MEM_UNIT             IMEMU          GB          [  3]    ***   
       MRCC                 IMRCCC         OFF         [  0]    ***   
       MULTIPLICTY          IMULTP              1               ***   
       NACOUPLING           IVCOUP         OFF         [  0]    ***   
       NEGEVAL              IDIE           ABORT       [  0]    ***   
       NEWNORM              INEWNO         OFF         [  0]    ***   
       NON-HF               INONHF         OFF         [  0]    ***   
       NTOP_TAMP            ITOPT2             15               ***   
       NUC_MODEL            INUCMO         POINT       [  0]    ***   
       OCCUPATION           IOCCU   ESTIMATED BY SCF 
       OPEN-SHELL           IOPEN          SPIN-ORBITAL[  0]    ***   
       OPTVIB               IOPTVB         OFF         [  0]    ***   
       ORBITALS             IORBTP         STANDARD    [  0]    ***   
       PARALLEL             IPARAL         ON          [  1]    ***   
       PARA_INT             IPINTS         ON          [  1]    ***   
       PARA_PRINT           IPPRIN              0               ***   
       PERT_ORB             IPTORB         STANDARD    [  0]    ***   
       POINTS               IGRDFD              0               ***   
       PRINT                IPRNT               0               ***   
       PROPS                IPROPS         OFF         [  0]    ***   
       PROP_INTEGR          IINTYP         INTERNAL    [  0]    ***   
       PSI                  IPSI           OFF         [  0]    ***   
       QC_ALG               IQCALG         FLM         [  0]    ***   
       QC_LINALG            IQCLIN         TRIDIAG     [  2]    ***   
       QC_MAXCYC            IQCMAX          10D-100           cycles  
       QC_MAXSCFCY          IQCMSC          10D- 15           cycles  
       QC_RTRUST            IQCRTR          10D-  0           x 10-3  
       QC_SKIPSCF           IQCSKI         OFF         [  0]    ***   
       QC_START             IQCSTA          10D-  1             ***   
       QRHFGUESS            IQGUES         OFF         [  0]    ***   
       QUARTIC              IQUART         OFF         [  0]    ***   
       RAMAN_INT            IRAMIN         OFF         [  0]    ***   
       RAMAN_ORB            IRAMRE         UNRELAXED   [  0]    ***   
       RDO                  IRDOFM         OFF         [  0]    ***   
       REDUCE_REPR          REDREP         Ir          [  0]    ***   
       REFERENCE            IREFNC         RHF         [  0]    ***   
       RELATIVIST           IRELAT         OFF         [  0]    ***   
       RELAX_DENS           IRDENS         OFF         [  0]    ***   
       RESET_FLAGS          IRESET         OFF         [  0]    ***   
       RESTART_CC           ICCRES         OFF         [  0]    ***   
       ROT_EVEC             ROTVEC              0               ***   
       SAVE_INTS            ISVINT         OFF         [  0]    ***   
       SCALE_ON             ISTCRT              0               ***   
       SCF_CONV             ISCFCV          10D-  8             ***   
       SCF_DAMPING          IDAMP               0             x 10-3  
       SCF_EXPORDE          IRPPOR              6               ***   
       SCF_EXPSTAR          IRPPLS              8               ***   
       SCF_EXTRAPO          IRPP           ON          [  1]    ***   
       SCF_MAXCYC           ISCFCY            150              cycles 
       SCF_NOSTOP           ISCFST         OFF         [  0]    ***   
       SCF_PRINT            ISCFPR              0               ***   
       SCF_PROG             ISCFPR         SCF         [  0]    ***   
       SD_FIELD             IFINSD              0             x 10-6  
       SOPERT               IPERSO         OFF         [  0]    ***   
       SPHERICAL            IDFGHI         ON          [  1]    ***   
       SPINORBIT            ISOCAL         OFF         [  0]    ***   
       SPINROTATIO          ISRCON         OFF         [  0]    ***   
       SPIN_FLIP            ISPFLP         OFF         [  0]    ***   
       SPIN_ORBIT           ISPORB         OFF         [  0]    ***   
       SPIN_SCAL            ISCSMP         OFF         [  0]    ***   
       STEEPSCALE           ISTPSC              1000          x 10-3  
       SUBGROUP             ISUBGP         DEFAULT     [  0]    ***   
       SUBGRPAXIS           ISBXYZ         X           [  0]    ***   
       SYMMETRY             ISYM           ON          [  0]    ***   
       SYM_CHECK            ISYMCK         OVERRIDE    [  1]    ***   
       T3_EXTRAPOL          IT3EXT         ON          [  1]    ***   
       T4_EXTRAPOL          IT4EXP         OFF         [  0]    ***   
       TAMP_SUM             IEVERY              5               ***   
       TESTSUITE            ITESTS         OFF         [  0]    ***   
       THERMOCH             ITHERM         OFF         [  0]    ***   
       TOL_CHOLESK          ITOLCH          10D-  4             ***   
       TRANGRAD             IRESRM         OFF         [  0]    ***   
       TRANS_INV            ITRAIN         USE         [  0]    ***   
       TREAT_PERT           ITREAT         SIMULTANEOUS[  0]    ***   
       TRIP_ALGORI          ITRALG         NORMAL      [  0]    ***   
       UIJ_THRESHO          IUIJTH              1               ***   
       UNITS                IUNITS         BOHR        [  1]    ***   
       UNOS                 IUNOS          OFF         [  0]    ***   
       UPDATE_HESS          IHUPDT         ON          [  1]    ***   
       VIBPHASE             ISETPH         STANDARD    [  0]    ***   
       VIBRATION            IVIB           NO          [  0]    ***   
       VIB_ALGORIT          IGEALG         STANDARD    [  0]    ***   
       VNATORB              IVNORB         OFF         [  0]    ***   
       VTRAN                IVTRAN         FULL/PARTIAL[  0]    ***   
       XFIELD               IXEFLD              0             x 10-6  
       XFORM_TOL            IXFTOL          10D- 11             ***   
       YFIELD               IYEFLD              0             x 10-6  
       ZFIELD               IZEFLD              0             x 10-6  
       ZSCALE_EXP           IZEXPS         OFF         [  0]    ***   
    -------------------------------------------------------------------
  @GETXYZ-I,     2 atoms read from ZMAT.
   Rotational constants (in cm-1): 
          1.9135333977             1.9135333977
   Rotational constants (in MHz): 
      57366.2961120363         57366.2961120363
********************************************************************************
   The full molecular point group is CXv .
   The largest Abelian subgroup of the full molecular point group is C2v .
   The computational point group is C2v .
********************************************************************************


 ----------------------------------------------------------------
         Coordinates used in calculation (QCOMP) 
 ----------------------------------------------------------------
 Z-matrix   Atomic            Coordinates (in bohr)
  Symbol    Number           X              Y              Z
 ----------------------------------------------------------------
     C         6        -0.00000000     0.00000000     1.22388322
     O         8         0.00000000     0.00000000    -0.91820425
 ----------------------------------------------------------------
 
   Interatomic distance matrix (Angstroms) 
 
                 C             O    
                [ 1]        [ 2]
  C    [ 1]     0.00000
  O    [ 2]     1.13354     0.00000
 rotcon2
   Rotational constants (in cm-1): 
          1.9135333977             0.0000000000
   Rotational constants (in MHz): 
      57366.2961120363             0.0000000000
  There are   2 frozen-core orbitals.
  There are   92 basis functions.
 @GEOPT-W, Archive file not created for single-point calculation.
 @CHECKOUT-I, Total execution time (CPU/WALL):        0.17/       1.50 seconds.
--executable xjoda finished with status     0 in        2.09 seconds (walltime).
 --invoking executable--
/home/CEISAM/blondel-a/soft/cfour2.1/cfour2.1-serial-mkl/bin/xvmol
 SERIAL VERSION OF MOLECULE STARTED
********************************************************************************
                    INPUT FROM MOL FILE
********************************************************************************
INTGRL        1    0    1    0    0    0    0    0    0                         
         *** CFOUR Program System (Release V0.1) ***                            
Ketene -GS                                                                      
    2    2 X  Y       0.10E-08              0    0                              
   9999.00      3.00                                                            
          6.00000000    1    4    1    1    1    1                              
C #1  -0.000000000000000   0.000000000000000   1.223883215473396                
   11    5                                                                      
   8236.00000000000       5.310000000000000E-004 -1.130000000000000E-004        
  0.000000000000000E+000  0.000000000000000E+000  0.000000000000000E+000        
   1235.00000000000       4.108000000000000E-003 -8.780000000000000E-004        
  0.000000000000000E+000  0.000000000000000E+000  0.000000000000000E+000        
   280.800000000000       2.108700000000000E-002 -4.540000000000000E-003        
  0.000000000000000E+000  0.000000000000000E+000  0.000000000000000E+000        
   79.2700000000000       8.185300000000000E-002 -1.813300000000000E-002        
  0.000000000000000E+000  0.000000000000000E+000  0.000000000000000E+000        
   25.5900000000000       0.234817000000000      -5.576000000000000E-002        
  0.000000000000000E+000  0.000000000000000E+000  0.000000000000000E+000        
   8.99700000000000       0.434401000000000      -0.126895000000000             
  0.000000000000000E+000  0.000000000000000E+000  0.000000000000000E+000        
   3.31900000000000       0.346129000000000      -0.170352000000000             
  0.000000000000000E+000  0.000000000000000E+000  0.000000000000000E+000        
  0.905900000000000       3.937800000000000E-002  0.140382000000000             
   1.00000000000000       0.000000000000000E+000  0.000000000000000E+000        
  0.364300000000000      -8.983000000000000E-003  0.598684000000000             
  0.000000000000000E+000  0.000000000000000E+000  0.000000000000000E+000        
  0.128500000000000       2.385000000000000E-003  0.395389000000000             
  0.000000000000000E+000   1.00000000000000       0.000000000000000E+000        
  4.402000000000000E-002  0.000000000000000E+000  0.000000000000000E+000        
  0.000000000000000E+000  0.000000000000000E+000   1.00000000000000             
    6    4                                                                      
   18.7100000000000       1.403100000000000E-002  0.000000000000000E+000        
  0.000000000000000E+000  0.000000000000000E+000                                
   4.13300000000000       8.686600000000000E-002  0.000000000000000E+000        
  0.000000000000000E+000  0.000000000000000E+000                                
   1.20000000000000       0.290216000000000       0.000000000000000E+000        
  0.000000000000000E+000  0.000000000000000E+000                                
  0.382700000000000       0.501008000000000        1.00000000000000             
  0.000000000000000E+000  0.000000000000000E+000                                
  0.120900000000000       0.343406000000000       0.000000000000000E+000        
   1.00000000000000       0.000000000000000E+000                                
  3.569000000000000E-002  0.000000000000000E+000  0.000000000000000E+000        
  0.000000000000000E+000   1.00000000000000                                     
    3    3                                                                      
   1.09700000000000        1.00000000000000       0.000000000000000E+000        
  0.000000000000000E+000                                                        
  0.318000000000000       0.000000000000000E+000   1.00000000000000             
  0.000000000000000E+000                                                        
  0.100000000000000       0.000000000000000E+000  0.000000000000000E+000        
   1.00000000000000                                                             
    2    2                                                                      
  0.761000000000000        1.00000000000000       0.000000000000000E+000        
  0.268000000000000       0.000000000000000E+000   1.00000000000000             
          8.00000000    1    4    1    1    1    1                              
O #2   0.000000000000000   0.000000000000000  -0.918204249626604                
   11    5                                                                      
   15330.0000000000       5.080000000000000E-004 -1.150000000000000E-004        
  0.000000000000000E+000  0.000000000000000E+000  0.000000000000000E+000        
   2299.00000000000       3.929000000000000E-003 -8.950000000000000E-004        
  0.000000000000000E+000  0.000000000000000E+000  0.000000000000000E+000        
   522.400000000000       2.024300000000000E-002 -4.636000000000000E-003        
  0.000000000000000E+000  0.000000000000000E+000  0.000000000000000E+000        
   147.300000000000       7.918100000000000E-002 -1.872400000000000E-002        
  0.000000000000000E+000  0.000000000000000E+000  0.000000000000000E+000        
   47.5500000000000       0.230687000000000      -5.846300000000000E-002        
  0.000000000000000E+000  0.000000000000000E+000  0.000000000000000E+000        
   16.7600000000000       0.433118000000000      -0.136463000000000             
  0.000000000000000E+000  0.000000000000000E+000  0.000000000000000E+000        
   6.20700000000000       0.350260000000000      -0.175740000000000             
  0.000000000000000E+000  0.000000000000000E+000  0.000000000000000E+000        
   1.75200000000000       4.272800000000000E-002  0.160934000000000             
   1.00000000000000       0.000000000000000E+000  0.000000000000000E+000        
  0.688200000000000      -8.154000000000000E-003  0.603418000000000             
  0.000000000000000E+000  0.000000000000000E+000  0.000000000000000E+000        
  0.238400000000000       2.381000000000000E-003  0.378765000000000             
  0.000000000000000E+000   1.00000000000000       0.000000000000000E+000        
  7.376000000000001E-002  0.000000000000000E+000  0.000000000000000E+000        
  0.000000000000000E+000  0.000000000000000E+000   1.00000000000000             
    6    4                                                                      
   34.4600000000000       1.592800000000000E-002  0.000000000000000E+000        
  0.000000000000000E+000  0.000000000000000E+000                                
   7.74900000000000       9.974000000000000E-002  0.000000000000000E+000        
  0.000000000000000E+000  0.000000000000000E+000                                
   2.28000000000000       0.310492000000000       0.000000000000000E+000        
  0.000000000000000E+000  0.000000000000000E+000                                
  0.715600000000000       0.491026000000000        1.00000000000000             
  0.000000000000000E+000  0.000000000000000E+000                                
  0.214000000000000       0.336337000000000       0.000000000000000E+000        
   1.00000000000000       0.000000000000000E+000                                
  5.974000000000000E-002  0.000000000000000E+000  0.000000000000000E+000        
  0.000000000000000E+000   1.00000000000000                                     
    3    3                                                                      
   2.31400000000000        1.00000000000000       0.000000000000000E+000        
  0.000000000000000E+000                                                        
  0.645000000000000       0.000000000000000E+000   1.00000000000000             
  0.000000000000000E+000                                                        
  0.214000000000000       0.000000000000000E+000  0.000000000000000E+000        
   1.00000000000000                                                             
    2    2                                                                      
   1.42800000000000        1.00000000000000       0.000000000000000E+000        
  0.500000000000000       0.000000000000000E+000   1.00000000000000             
FINISH                                                                          
 
********************************************************************************
 ONE- AND TWO-ELECTRON INTEGRALS OVER SYMMETRY-ADAPTED AOS ARE CALCULATED.

  SPHERICAL HARMONICS ARE USED.
  
  INTEGRALS LESS THAN  0.10E-13 ARE NEGLECTED.

  NUCLEAR REPULSION ENERGY :   22.4080485891 A.U.
  @MOLECU-I, ONE ELECTRON INTEGRALS (CPU/WALL):        0.04/       0.07 SECONDS.
  @TWOEL-I,     195611 INTEGRALS OF SYMMETRY TYPE  I I I I
  @TWOEL-I,     731801 INTEGRALS OF SYMMETRY TYPE  I J I J
  @TWOEL-I,     399465 INTEGRALS OF SYMMETRY TYPE  I I J J
  @TWOEL-I,     472704 INTEGRALS OF SYMMETRY TYPE  I J K L
  @TWOEL-I, TOTAL NUMBER OF 2-E INTEGRALS    1799581.
  @MOLECU-I, TWO ELECTRON INTEGRALS (CPU/WALL):       27.75/       1.41 SECONDS.
 @CHECKOUT-I, Total execution time (CPU/WALL):       27.80/       1.49 seconds.

Running with 20 threads/proc

--executable xvmol finished with status     0 in        2.07 seconds (walltime).
 --invoking executable--
/home/CEISAM/blondel-a/soft/cfour2.1/cfour2.1-serial-mkl/bin/xvmol2ja
 @GETMEM-I,  Allocated  238418 MB of main memory.
 @CHECKOUT-I, Total execution time (CPU/WALL):        0.22/       0.08 seconds.
--executable xvmol2ja finished with status     0 in        0.63 seconds (walltime).
 --invoking executable--
/home/CEISAM/blondel-a/soft/cfour2.1/cfour2.1-serial-mkl/bin/xvscf
  There are   92 functions in the AO basis.

  There are 4 irreducible representations.

       Irrep        # of functions
         1                 38
         2                 22
         3                 22
         4                 10


  Parameters for SCF calculation: 
        SCF reference function:  RHF  
  Maximum number of iterations:  150
     Full symmetry point group: CXv 
     Computational point group: C2v 
        Initial density matrix: MOREAD                 
     SCF convergence tolerance: 10**(- 8)
  DIIS convergence acceleration:  ON
          Latest start for DIIS:   8
                     DIIS order:   6

  Memory information:     434642 words required.
  Fock matrices are constructed from AO integral file.
 @GETMEM-I,  Allocated       3 MB of main memory.
  Initialization and symmetry analysis required      0.003 seconds.

  @INITGES-I, Occupancies from core Hamiltonian:

          Alpha population by irrep:   5    1    1    0
           Beta population by irrep:   5    1    1    0


 total no. of electrons in initial guess :  0.000000000000000E+000
  --------------------------------------------------------------------
  Iteration         Total Energy            Largest Density Difference
  --------------------------------------------------------------------
       0            22.408048589070660              0.0000000000D+00
   current occupation vector 
     5  1  1  0
     5  1  1  0
       1           -93.621510780872796              0.1313411998D+02
   current occupation vector 
     5  1  1  0
     5  1  1  0
       2           -97.236175059962747              0.1312977378D+02
   current occupation vector 
     5  1  1  0
     5  1  1  0
       3          -103.512888306911890              0.9956581011D+01
   current occupation vector 
     5  1  1  0
     5  1  1  0
       4          -100.486179412930085              0.7252816518D+01
   current occupation vector 
     5  1  1  0
     5  1  1  0
       5          -103.311521249808266              0.5729123518D+01
   current occupation vector 
     5  1  1  0
     5  1  1  0
       6          -100.396662594627415              0.5727365702D+01
   current occupation vector 
     5  1  1  0
     5  1  1  0
       7          -103.257540083874389              0.5523473181D+01
   current occupation vector 
     5  1  1  0
     5  1  1  0
       8          -100.235828625086612              0.5509754073D+01
   current occupation vector 
     5  1  1  0
     5  1  1  0
       9          -110.840848479787383              0.4228957523D+01
   current occupation vector 
     5  1  1  0
     5  1  1  0
      10          -112.258870155353634              0.9643320498D+00
   current occupation vector 
     5  1  1  0
     5  1  1  0
      11          -112.764469500722811              0.5492764774D+00
   current occupation vector 
     5  1  1  0
     5  1  1  0
      12          -112.780203191673166              0.1017426116D+00
   current occupation vector 
     5  1  1  0
     5  1  1  0
      13          -112.780648917640036              0.2247135586D-01
   current occupation vector 
     5  1  1  0
     5  1  1  0
      14          -112.780734160842542              0.1404540202D-01
   current occupation vector 
     5  1  1  0
     5  1  1  0
      15          -112.780737663311555              0.3792533646D-02
   current occupation vector 
     5  1  1  0
     5  1  1  0
      16          -112.780737698393921              0.3209580902D-03
   current occupation vector 
     5  1  1  0
     5  1  1  0
      17          -112.780737699020904              0.3363955882D-04
   current occupation vector 
     5  1  1  0
     5  1  1  0
      18          -112.780737699045716              0.6181956185D-05
   current occupation vector 
     5  1  1  0
     5  1  1  0
      19          -112.780737699046512              0.1380788778D-05
   current occupation vector 
     5  1  1  0
     5  1  1  0
      20          -112.780737699047307              0.1622117638D-06
   current occupation vector 
     5  1  1  0
     5  1  1  0
      21          -112.780737699047108              0.1785612042D-07
   current occupation vector 
     5  1  1  0
     5  1  1  0

  SCF has converged.

 Density matrix saved to file den.dat
 total electron number:   14.0000000000000     
     E(SCF)=      -112.780737699046597              0.4568787793D-08

  Eigenvector printing suppressed.

 @PUTMOS-I, Writing converged MOs to NEWMOS. 
 @PUTMOS-I, Symmetry   1 Full Blocks  9 Partial Blocksize   2
 @PUTMOS-I, Symmetry   2 Full Blocks  5 Partial Blocksize   2
 @PUTMOS-I, Symmetry   3 Full Blocks  5 Partial Blocksize   2
 @PUTMOS-I, Symmetry   4 Full Blocks  2 Partial Blocksize   2
 @PUTFOCK-I, Writing converged Fock matrix to NEWFOCK. 
 @PUTFOCK-I, Symmetry   1 Full Blocks  9 Partial Blocksize   2
 @PUTFOCK-I, Symmetry   2 Full Blocks  5 Partial Blocksize   2
 @PUTFOCK-I, Symmetry   3 Full Blocks  5 Partial Blocksize   2
 @PUTFOCK-I, Symmetry   4 Full Blocks  2 Partial Blocksize   2


 
  ORBITAL EIGENVALUES (ALPHA)  (1H = 27.2113834 eV)

       MO #        E(hartree)               E(eV)           FULLSYM    COMPSYM
       ----   --------------------   --------------------   -------   ---------
    1     1         -20.6684180932        -562.4162490067     SG+        A1 (1)
    2     2         -11.3643108924        -309.2386207706     SG+        A1 (1)
    3     3          -1.5194102344         -41.3452544289     SG+        A1 (1)
    4     4          -0.8044591745         -21.8904470282     SG+        A1 (1)
    5    61          -0.6382302617         -17.3671283473      PI        B2 (3)
    6    39          -0.6382302617         -17.3671283473      PI        B1 (2)
    7     5          -0.5555452437         -15.1171546225     SG+        A1 (1)
  +++++++++++++++++++++++++++++++++++++++++++++++++++++++++++++++++++++++++++++
    8     6           0.0693503575           1.8871191658     SG+        A1 (1)
    9    62           0.0700098361           1.9050644931      PI        B2 (3)
   10    40           0.0700098361           1.9050644931      PI        B1 (2)
   11     7           0.0877478733           2.3877410220     SG+        A1 (1)
   12    41           0.1524638544           4.1487523964      PI        B1 (2)
   13    63           0.1524638544           4.1487523964      PI        B2 (3)
   14     8           0.1852720425           5.0415085815     SG+        A1 (1)
   15    64           0.1981449776           5.3917989536      PI        B2 (3)
   16    42           0.1981449776           5.3917989536      PI        B1 (2)
   17     9           0.2688796499           7.3165872430     SG+        A1 (1)
   18    83           0.2961054844           8.0574398625      DE        A2 (4)
   19    10           0.2961054844           8.0574398625      DE        A1 (1)
   20    11           0.3924118406          10.6780690446     SG+        A1 (1)
   21    43           0.4137873513          11.2597262628      PI        B1 (2)
   22    65           0.4137873513          11.2597262628      PI        B2 (3)
   23    12           0.5001983606          13.6110893671     SG+        A1 (1)
   24    66           0.5079672848          13.8224925415      PI        B2 (3)
   25    44           0.5079672848          13.8224925415      PI        B1 (2)
   26    13           0.6701205551          18.2349073496     SG+        A1 (1)
   27    84           0.7248386346          19.7238619888      DE        A2 (4)
   28    14           0.7248386346          19.7238619888      DE        A1 (1)
   29    15           0.7872570869          21.4223544267     SG+        A1 (1)
   30    67           0.8416439342          22.9022957795      PI        B2 (3)
   31    45           0.8416439342          22.9022957795      PI        B1 (2)
   32    16           1.0059501408          27.3732949626     SG+        A1 (1)
   33    17           1.0473845470          28.5007824764      DE        A1 (1)
   34    85           1.0473845470          28.5007824764      DE        A2 (4)
   35    46           1.0722216087          29.1766332832      PH        B1 (2)
   36    68           1.0722216087          29.1766332832      PH        B2 (3)
   37    47           1.0874918273          29.5921570563      PI        B1 (2)
   38    69           1.0874918273          29.5921570563      PI        B2 (3)
   39    70           1.2200613117          33.1995561252      PI        B2 (3)
   40    48           1.2200613117          33.1995561252      PI        B1 (2)
   41    18           1.2519838437          34.0682123828     SG+        A1 (1)
   42    86           1.2754418008          34.7065358449      DE        A2 (4)
   43    19           1.2754418008          34.7065358449      DE        A1 (1)
   44    20           1.3814526339          37.5912372696     SG+        A1 (1)
   45    71           1.4882031092          40.4960653807      PI        B2 (3)
   46    49           1.4882031092          40.4960653807      PI        B1 (2)
   47    21           1.5326583675          41.7057544591     SG+        A1 (1)
   48    50           2.1425131043          58.3007455202      PH        B1 (2)
   49    72           2.1425131043          58.3007455202      PH        B2 (3)
   50    87           2.1786411054          59.2838384112      DE        A2 (4)
   51    22           2.1786411054          59.2838384112      DE        A1 (1)
   52    73           2.3221731944          63.1895451135      PI        B2 (3)
   53    51           2.3221731944          63.1895451135      PI        B1 (2)
   54    23           2.3582357883          64.1708581829     SG+        A1 (1)
   55    24           2.4350775791          66.2618296147     SG+        A1 (1)
   56    74           2.5691389634          69.9098253406      PI        B2 (3)
   57    52           2.5691389634          69.9098253406      PI        B1 (2)
   58    25           2.5804508197          70.2176365984      DE        A1 (1)
   59    88           2.5804508197          70.2176365984      DE        A2 (4)
   60    26           2.6735074363          72.7498358712     SG+        A1 (1)
   61    75           2.9683229099          80.7721727550      PI        B2 (3)
   62    53           2.9683229099          80.7721727550      PI        B1 (2)
   63    27           3.3941551012          92.3596557768      DE        A1 (1)
   64    89           3.3941551012          92.3596557768      DE        A2 (4)
   65    76           3.4193381465          93.0449212777      PH        B2 (3)
   66    54           3.4193381465          93.0449212777      PH        B1 (2)
   67    28           3.4796987815          94.6874176609     SG+        A1 (1)
   68    77           3.6218824925          98.5564331329      PI        B2 (3)
   69    55           3.6218824925          98.5564331329      PI        B1 (2)
   70    90           3.7397976084         101.7650665607      DE        A2 (4)
   71    29           3.7397976084         101.7650665607      DE        A1 (1)
   72    78           3.9831489504         108.3869932287      PI        B2 (3)
   73    56           3.9831489504         108.3869932287      PI        B1 (2)
   74    30           4.0191699085         109.3671733312     SG+        A1 (1)
   75    31           4.3759262505         119.0750069326     SG+        A1 (1)
   76    79           5.2187033222         142.0081369525      PI        B2 (3)
   77    57           5.2187033222         142.0081369525      PI        B1 (2)
   78    32           5.3267992034         144.9495754193     SG+        A1 (1)
   79    80           6.4667079657         175.9680697905      PH        B2 (3)
   80    58           6.4667079657         175.9680697905      PH        B1 (2)
   81    33           6.7459532682         183.5667207795      DE        A1 (1)
   82    91           6.7459532682         183.5667207795      DE        A2 (4)
   83    92           7.0264218248         191.1986582054      DE        A2 (4)
   84    34           7.0264218248         191.1986582054      DE        A1 (1)
   85    81           7.0965916057         193.1080750151      PI        B2 (3)
   86    59           7.0965916057         193.1080750151      PI        B1 (2)
   87    35           7.2011917713         195.9543902269     SG+        A1 (1)
   88    82           7.4289056022         202.1507985843      PI        B2 (3)
   89    60           7.4289056022         202.1507985843      PI        B1 (2)
   90    36           7.6033547041         206.8977999799     SG+        A1 (1)
   91    37          12.5019092350         340.1942454266     SG+        A1 (1)
   92    38          15.1652338122         412.6669916140     SG+        A1 (1)


  VSCF finished.

 @CHECKOUT-I, Total execution time (CPU/WALL):        5.23/       0.72 seconds.
--executable xvscf finished with status     0 in        1.26 seconds (walltime).
 --invoking executable--
/home/CEISAM/blondel-a/soft/cfour2.1/cfour2.1-serial-mkl/bin/xvtran
 @GETMEM-I,  Allocated  238418 MB of main memory.
  Full RHF integral transformation
  The following   2 MOs will be dropped:
    1  2
  There are  90 active molecular orbitals.
  Transformation of IIII integrals :
  1 pass through the AO integral file was required.
      195611 AO integrals were read.
      265389 MO integrals were written to HF2.
  Transformation of IIJJ integrals :
  1 pass through the AO integral file was required.
      399465 AO integrals were read.
      457130 MO integrals were written to HF2.
  Transformation of IJIJ integrals :
  1 pass through the AO integral file was required.
      731801 AO integrals were read.
      817851 MO integrals were written to HF2.
  Transformation of IJKL integrals :
  1 pass through the AO integral file was required.
      472704 AO integrals were read.
      501532 MO integrals were written to HF2.
  Summary of active molecular orbitals: 
------------------------------------------------------------------------
 
  Index      Eigenvalue    Symmetry    Index      Eigenvalue    Symmetry
------------------------------------------------------------------------
     1        -1.5194102        1        46         1.0874918        2
     2        -0.8044592        1        47         1.2200613        2
     3        -0.5555452        1        48         1.4882031        2
     4        -0.6382303        2        49         2.1425131        2
     5        -0.6382303        3        50         2.3221732        2
     6         0.0693504        1        51         2.5691390        2
     7         0.0877479        1        52         2.9683229        2
     8         0.1852720        1        53         3.4193381        2
     9         0.2688796        1        54         3.6218825        2
    10         0.2961055        1        55         3.9831490        2
    11         0.3924118        1        56         5.2187033        2
    12         0.5001984        1        57         6.4667080        2
    13         0.6701206        1        58         7.0965916        2
    14         0.7248386        1        59         7.4289056        2
    15         0.7872571        1        60         0.0700098        3
    16         1.0059501        1        61         0.1524639        3
    17         1.0473845        1        62         0.1981450        3
    18         1.2519838        1        63         0.4137874        3
    19         1.2754418        1        64         0.5079673        3
    20         1.3814526        1        65         0.8416439        3
    21         1.5326584        1        66         1.0722216        3
    22         2.1786411        1        67         1.0874918        3
    23         2.3582358        1        68         1.2200613        3
    24         2.4350776        1        69         1.4882031        3
    25         2.5804508        1        70         2.1425131        3
    26         2.6735074        1        71         2.3221732        3
    27         3.3941551        1        72         2.5691390        3
    28         3.4796988        1        73         2.9683229        3
    29         3.7397976        1        74         3.4193381        3
    30         4.0191699        1        75         3.6218825        3
    31         4.3759263        1        76         3.9831490        3
    32         5.3267992        1        77         5.2187033        3
    33         6.7459533        1        78         6.4667080        3
    34         7.0264218        1        79         7.0965916        3
    35         7.2011918        1        80         7.4289056        3
    36         7.6033547        1        81         0.2961055        4
    37        12.5019092        1        82         0.7248386        4
    38        15.1652338        1        83         1.0473845        4
    39         0.0700098        2        84         1.2754418        4
    40         0.1524639        2        85         2.1786411        4
    41         0.1981450        2        86         2.5804508        4
    42         0.4137874        2        87         3.3941551        4
    43         0.5079673        2        88         3.7397976        4
    44         0.8416439        2        89         6.7459533        4
    45         1.0722216        2        90         7.0264218        4
------------------------------------------------------------------------
  -1.51941023435561      -0.804459174547075      -0.555545243706150     
 -0.638230261653821      -0.638230261653838       6.935035746066139E-002
  8.774787326659672E-002  0.185272042488835       0.268879649940845     
  0.296105484388329       0.392411840576842       0.500198360628102     
  0.670120555120803       0.724838634584042       0.787257086924943     
   1.00595014080141        1.04738454702920        1.25198384374644     
   1.27544180076306        1.38145263388389        1.53265836749295     
   2.17864110544251        2.35823578829345        2.43507757913929     
   2.58045081965362        2.67350743627397        3.39415510116239     
   3.47969878153775        3.73979760840431        4.01916990854607     
   4.37592625050592        5.32679920342758        6.74595326820045     
   7.02642182482440        7.20119177134108        7.60335470411670     
   12.5019092350373        15.1652338121839       7.000983614280082E-002
  0.152463854387605       0.198144977576029       0.413787351318869     
  0.507967284806439       0.841643934189593        1.07222160866691     
   1.08749182727300        1.22006131173796        1.48820310916962     
   2.14251310428563        2.32217319437964        2.56913896338599     
   2.96832290985286        3.41933814646570        3.62188249248961     
   3.98314895040366        5.21870332224594        6.46670796570031     
   7.09659160566846        7.42890560221548       7.000983614278788E-002
  0.152463854387607       0.198144977576001       0.413787351318913     
  0.507967284806432       0.841643934189576        1.07222160866692     
   1.08749182727307        1.22006131173794        1.48820310916961     
   2.14251310428563        2.32217319437954        2.56913896338591     
   2.96832290985205        3.41933814646568        3.62188249248959     
   3.98314895040351        5.21870332224555        6.46670796570028     
   7.09659160566842        7.42890560221484       0.296105484388318     
  0.724838634584027        1.04738454702920        1.27544180076305     
   2.17864110544251        2.58045081965365        3.39415510116240     
   3.73979760840428        6.74595326820050        7.02642182482436     
 @CHECKOUT-I, Total execution time (CPU/WALL):       10.61/       0.70 seconds.
--executable xvtran finished with status     0 in        1.72 seconds (walltime).
 --invoking executable--
/home/CEISAM/blondel-a/soft/cfour2.1/cfour2.1-serial-mkl/bin/xintprc
 @GETMEM-I,  Allocated  238418 MB of main memory.
  @GMOIAA-I, Processing MO integrals for spin case AA.
  @GMOIAA-I, Generation of integral list completed.
                      TYPE                NUMBER
                      ----               --------
                      PPPP               1618554
                      PPPH                383448
                      PPHH                 23402
                      PHPH                 14626
                      PHHH                  1823
                      HHHH                    49

                     TOTAL               2041902

  @FORMT2-I, Second-order MP correlation energies:
            ------------------------------------------------
            E(SCF)                  =   -112.780737699047 a.u.
            E2(AA)                  =     -0.045677190832 a.u.
            E2(AB)                  =     -0.270257818426 a.u.
            E2(TOT)                 =     -0.361612200091 a.u.
            Total MP2 energy        =   -113.142349899138 a.u.
            ------------------------------------------------
   Largest T2 amplitudes for spin case AB:
       _       _                 _       _                 _       _
   i   j   a   b             i   j   a   b             i   j   a   b
-----------------------------------------------------------------------------
[  4   4  40  40]-0.03906 [  5   5  61  61]-0.03906 [  5   4  61  40]-0.03137
[  4   5  40  61]-0.03137 [  3   3  61  61]-0.02991 [  3   3  40  40]-0.02991
[  4   4  39  40]-0.02006 [  4   4  40  39]-0.02006 [  5   5  61  60]-0.02006
[  5   5  60  61]-0.02006 [  3   3  15  15]-0.01992 [  5   5  62  61]-0.01918
[  5   5  61  62]-0.01918 [  4   4  41  40]-0.01918 [  4   4  40  41]-0.01918
-----------------------------------------------------------------------------
   Norm of T2AB vector (    47537 symmetry allowed elements):  0.2791880945.
-----------------------------------------------------------------------------
 @CHECKOUT-I, Total execution time (CPU/WALL):        3.95/       0.74 seconds.
--executable xintprc finished with status     0 in        1.30 seconds (walltime).
  calling xncc 
 --invoking executable--
/home/CEISAM/blondel-a/soft/cfour2.1/cfour2.1-serial-mkl/bin/xncc
 @GETMEM-I,  Allocated       7 MB of main memory.

Running with 20 threads/proc

Following the lowest-energy eigenvector.
Using a partitioned Davidson procedure.
Using discrete restarting.
Using an orthogonal subspace.
Orthogonalizing against previous roots.
Using Modified Gram-Schmidt orthogonalization.

Using DIIS to accelerate the convergence of T1 and T2
Using DIIS to accelerate the convergence of T3
Using immediate high-order contributions
Performing 2 CCSDT sub-iterations
Damping factor for T3: 0.000000
Damping factor for T4: 0.000000

Transposes are coarse-threaded

Memory limit:                232.831 GiB
Minimum memory requirement:  206.648 MiB
Compromise memory amount:      5.896 GiB
Optimal memory requirement:   10.499 GiB

List              Location   Size        Cached Hunks Est. Disk I/O
----------------- ---------- ----------- ------ ----- -------------

           HR_DAV      470:1   12.004 MiB    Yes     -    38.002 GiB
                R        471    2.436 MiB    Yes     -   219.214 MiB
            R_DAV      470:0   12.004 MiB    Yes     -    69.694 GiB
           T_DIIS       70:0    1.819 MiB    Yes     -    32.738 MiB
           Z_DIIS       70:1    1.819 MiB    Yes     -    54.563 MiB
          <AI|bj>         18  371.383 KiB    Yes     -    68.118 MiB
          <Ab|Cd>        233  100.632 MiB    Yes     -   459.135 GiB
          <Ab|Ci>         30    5.996 MiB    Yes     -    33.722 GiB
          <Ab|Ij>         16  371.383 KiB    Yes     -     2.298 GiB
          <Ai|Bj>         25  371.383 KiB    Yes     -    61.293 MiB
          <Aj|bI>         21  371.383 KiB     No     -         0   B
          <Ij|Ka>         10   23.180 KiB    Yes     -   183.258 MiB
          <Ij|Kl>         13    1.539 KiB    Yes     -   120.047 KiB
           DD(AI)      448:8    1.102 KiB    Yes     -    93.781 KiB
        DD(Ab,Ij)        450  371.383 KiB    Yes     -    37.480 MiB
            F(EA)       92:0   16.180 KiB    Yes     -    19.735 MiB
            F(EM)       93:0    1.102 KiB    Yes     -     1.522 MiB
            F(MI)       91:0       88   B    Yes     -   136.984 KiB
           HR(AI)      490:2    1.102 KiB    Yes     -     6.775 MiB
        HR(Ab,Ij)        463  371.383 KiB    Yes     -     4.676 GiB
            Q(AI)      190:2    1.102 KiB    Yes     -   396.562 KiB
         Q(Ab,Ij)         50  371.383 KiB    Yes     -   554.898 MiB
        QQ(Ab,Ij)          3  371.383 KiB    Yes     -    83.857 MiB
            R(AI)      490:0    1.102 KiB    Yes     -    15.828 MiB
         R(Ab,Ij)        446  371.383 KiB    Yes     -     7.575 GiB
            T(AI)       90:0    1.102 KiB    Yes     -     3.417 MiB
         T(Ab,Ij)         46  371.383 KiB    Yes     -     3.272 GiB
         W(Mn,Ij)         53    1.539 KiB    Yes     -     1.942 MiB
        W~(Ab,Ej)        130    5.996 MiB    Yes     -    18.617 GiB
        W~(EM,bj)         56  371.383 KiB    Yes     -   802.674 MiB
        W~(Em,Bj)         58  371.383 KiB    Yes     -  1009.697 MiB
        W~(Ij,Mb)        110   23.180 KiB    Yes     -    40.980 MiB
       W~~(Ab,Ef)         33  100.632 MiB    Yes     -    10.908 GiB
       W~~(Ab,Ej)        169    5.996 MiB    Yes     -    18.562 GiB
       W~~(EM,bj)         76  371.383 KiB    Yes     -   245.171 MiB
       W~~(Em,Bj)         78  371.383 KiB    Yes     -   245.171 MiB
       W~~(Ij,Mb)        165   23.180 KiB    Yes     -   178.347 MiB
       W~~(Mn,Ij)        153    1.539 KiB    Yes     -   169.297 KiB
         X(Ab,Ef)        433  100.632 MiB    Yes     -   286.298 GiB
         X(Ab,Ej)        430    5.996 MiB    Yes     -    27.483 GiB
         X(Ab,Ij)        416  371.383 KiB     No     -         0   B
            X(EA)      492:0   16.180 KiB    Yes     -    16.250 MiB
            X(EM)      493:0    1.102 KiB    Yes     -   912.891 KiB
         X(EM,bj)        418  371.383 KiB    Yes     -   546.699 MiB
         X(Ef,Am)        469    5.996 MiB    Yes     -     7.834 GiB
         X(Em,Bj)        425  371.383 KiB    Yes     -   692.485 MiB
         X(Ij,Mb)        410   23.180 KiB    Yes     -   132.549 MiB
            X(MI)      491:0       88   B    Yes     -    74.648 KiB
         X(Mn,Ie)        465   23.180 KiB    Yes     -    76.298 MiB
         X(Mn,Ij)        413    1.539 KiB    Yes     -     1.559 MiB
            Z(AI)       90:2    1.102 KiB    Yes     -   396.562 KiB
         Z(Ab,Ij)         63  371.383 KiB    Yes     -   130.564 MiB
      HR(abc,ijk)    HR3FILE   35.605 MiB    Yes     1   176.894 GiB
    HR(abcd,ijkl)          -    4.389 GiB     No     1         0   B
            HR3_1      HR3_1   35.605 MiB    Yes     1   191.224 GiB
           HR3_10     HR3_10   35.605 MiB    Yes     1   201.951 GiB
           HR3_11     HR3_11   35.605 MiB    Yes     1   185.143 GiB
           HR3_12     HR3_12   35.605 MiB    Yes     1   188.753 GiB
           HR3_13     HR3_13   35.605 MiB    Yes     1   192.363 GiB
           HR3_14     HR3_14   35.605 MiB    Yes     1   195.974 GiB
           HR3_15     HR3_15   35.605 MiB    Yes     1   199.584 GiB
           HR3_16     HR3_16   35.605 MiB    Yes     1   203.194 GiB
           HR3_17     HR3_17   35.605 MiB    Yes     1   206.804 GiB
           HR3_18     HR3_18   35.605 MiB    Yes     1   210.414 GiB
           HR3_19     HR3_19   35.605 MiB    Yes     1   214.024 GiB
            HR3_2      HR3_2   35.605 MiB    Yes     1   166.057 GiB
           HR3_20     HR3_20   35.605 MiB    Yes     1   217.634 GiB
           HR3_21     HR3_21   35.605 MiB    Yes     1     4.221 GiB
           HR3_22     HR3_22   35.605 MiB    Yes     1     4.221 GiB
           HR3_23     HR3_23   35.605 MiB    Yes     1     4.221 GiB
           HR3_24     HR3_24   35.605 MiB    Yes     1     4.221 GiB
           HR3_25     HR3_25   35.605 MiB    Yes     1     4.221 GiB
           HR3_26     HR3_26   35.605 MiB    Yes     1     4.221 GiB
           HR3_27     HR3_27   35.605 MiB    Yes     1     4.221 GiB
           HR3_28     HR3_28   35.605 MiB    Yes     1     4.221 GiB
           HR3_29     HR3_29   35.605 MiB    Yes     1     4.221 GiB
            HR3_3      HR3_3   35.605 MiB    Yes     1   169.770 GiB
           HR3_30     HR3_30   35.605 MiB    Yes     1     4.221 GiB
           HR3_31     HR3_31   35.605 MiB     No     1         0   B
           HR3_32     HR3_32   35.605 MiB     No     1         0   B
           HR3_33     HR3_33   35.605 MiB     No     1         0   B
            HR3_4      HR3_4   35.605 MiB    Yes     1   173.483 GiB
            HR3_5      HR3_5   35.605 MiB    Yes     1   177.196 GiB
            HR3_6      HR3_6   35.605 MiB    Yes     1   180.909 GiB
            HR3_7      HR3_7   35.605 MiB    Yes     1   184.622 GiB
            HR3_8      HR3_8   35.605 MiB    Yes     1   188.335 GiB
            HR3_9      HR3_9   35.605 MiB    Yes     1   192.048 GiB
       Q(abc,ijk)     Q3FILE   35.605 MiB    Yes     1     2.086 GiB
       R(abc,ijk)     R3FILE   35.605 MiB    Yes     1   418.769 GiB
             R3_1       R3_1   35.605 MiB    Yes     1   352.126 GiB
            R3_10      R3_10   35.605 MiB    Yes     1   355.634 GiB
            R3_11      R3_11   35.605 MiB    Yes     1   336.766 GiB
            R3_12      R3_12   35.605 MiB    Yes     1   340.377 GiB
            R3_13      R3_13   35.605 MiB    Yes     1   343.987 GiB
            R3_14      R3_14   35.605 MiB    Yes     1   347.597 GiB
            R3_15      R3_15   35.605 MiB    Yes     1   351.207 GiB
            R3_16      R3_16   35.605 MiB    Yes     1   354.817 GiB
            R3_17      R3_17   35.605 MiB    Yes     1   358.427 GiB
            R3_18      R3_18   35.605 MiB    Yes     1   362.037 GiB
            R3_19      R3_19   35.605 MiB    Yes     1   365.647 GiB
           R3_1_1     R3_1_1   35.605 MiB    Yes     1     7.823 GiB
           R3_1_2     R3_1_2   35.605 MiB     No     1         0   B
           R3_1_3     R3_1_3   35.605 MiB     No     1         0   B
             R3_2       R3_2   35.605 MiB    Yes     1   319.739 GiB
            R3_20      R3_20   35.605 MiB    Yes     1   362.037 GiB
            R3_21      R3_21   35.605 MiB    Yes     1     4.221 GiB
            R3_22      R3_22   35.605 MiB    Yes     1     4.221 GiB
            R3_23      R3_23   35.605 MiB    Yes     1     4.221 GiB
            R3_24      R3_24   35.605 MiB    Yes     1     4.221 GiB
            R3_25      R3_25   35.605 MiB    Yes     1     4.221 GiB
            R3_26      R3_26   35.605 MiB    Yes     1     4.221 GiB
            R3_27      R3_27   35.605 MiB    Yes     1     4.221 GiB
            R3_28      R3_28   35.605 MiB    Yes     1     4.221 GiB
            R3_29      R3_29   35.605 MiB    Yes     1     4.221 GiB
           R3_2_1     R3_2_1   35.141 MiB    Yes     1     5.148 GiB
           R3_2_2     R3_2_2   35.141 MiB     No     1         0   B
             R3_3       R3_3   35.605 MiB    Yes     1   323.452 GiB
            R3_30      R3_30   35.605 MiB    Yes     1     4.221 GiB
            R3_31      R3_31   35.605 MiB     No     1         0   B
            R3_32      R3_32   35.605 MiB     No     1         0   B
            R3_33      R3_33   35.605 MiB     No     1         0   B
             R3_4       R3_4   35.605 MiB    Yes     1   327.165 GiB
           R3_4_1     R3_4_1   34.676 MiB    Yes     1     5.080 GiB
           R3_4_2     R3_4_2   34.676 MiB     No     1         0   B
             R3_5       R3_5   35.605 MiB    Yes     1   330.878 GiB
             R3_6       R3_6   35.605 MiB    Yes     1   334.591 GiB
             R3_7       R3_7   35.605 MiB    Yes     1   338.304 GiB
             R3_8       R3_8   35.605 MiB    Yes     1   342.017 GiB
             R3_9       R3_9   35.605 MiB    Yes     1   345.730 GiB
       T(abc,ijk)     T3FILE   35.605 MiB    Yes     1    17.246 GiB
     T(abcd,ijkl)          -    4.389 GiB     No     1         0   B
             T3_1       T3_1   35.605 MiB    Yes     1     1.043 GiB
             T3_2       T3_2   35.605 MiB    Yes     1   534.070 MiB
             T3_3       T3_3   35.605 MiB    Yes     1   534.070 MiB
             T3_4       T3_4   35.605 MiB    Yes     1   534.070 MiB
             T3_5       T3_5   35.605 MiB    Yes     1   534.070 MiB
       W(abc,ije)    WABCIJE    1.466 GiB    Yes     1   353.250 GiB
       W(abm,ijk)    WABMIJK    5.295 MiB    Yes     1     1.246 GiB
       X(abc,ije)    XABCIJE    1.466 GiB    Yes     1   306.497 GiB
       X(abm,ijk)    XABMIJK    5.295 MiB    Yes     1     1.064 GiB
       X(mnd,jkl)    XMNDJKL  328.266 KiB     No     1         0   B
       Z(abc,ijk)     Z3FILE   35.605 MiB    Yes     1     5.737 GiB
     Z(abcd,ijkl)          -    4.389 GiB     No     1         0   B
             Z3_1       Z3_1   35.605 MiB    Yes     1     1.043 GiB
             Z3_2       Z3_2   35.605 MiB    Yes     1     1.043 GiB
             Z3_3       Z3_3   35.605 MiB    Yes     1     1.043 GiB
             Z3_4       Z3_4   35.605 MiB    Yes     1     1.043 GiB
             Z3_5       Z3_5   35.605 MiB    Yes     1     1.043 GiB

Simulation and memory analysis took 6.689 seconds

MP2 correlation energy:  -0.361612200091036

Non-iterative calculation of MP2 took 0.076 cpu seconds and 0.004 walltime seconds at 0.581 Gflops/sec

Total MP2 energy: -113.142349899137628

Beginning iterative solution of CC4 equations:

It.  Correlation Energy T1 Residual T2 Residual T3 Residual CPU Time (s) Walltime (s)
-------------------------------------------------------------------------------------
  1  -0.381043520747044 1.88680e-03 2.56307e-03 1.03788e-03     2380.843      167.887
  2  -0.382487207229277 2.69193e-04 3.42133e-04 2.42421e-04     2289.873      162.989
  3  -0.382672299415299 5.37423e-05 1.25459e-05 4.67490e-05     2308.206      163.916
  4  -0.382665353712324 1.23530e-05 4.96192e-06 8.27270e-06     2285.248      162.189
  5  -0.382661817661229 1.72048e-06 5.68329e-07 1.36002e-06     2284.100      161.933

   A    I                     A    I                     A    I                  
-------------------------- -------------------------- -------------------------- 
  13    5  0.0260207306243    9    5  0.0104649838258   38    5  0.0087687892943 
  12    6  0.0260207306243   10    6  0.0104649838258   15    5  0.0061975020365 
  25    6  0.0128230556114   29    7 -0.0095372137664   16    6  0.0061975020365 
  24    5  0.0128230556114    8    7  0.0090029388505   32    7 -0.0056028339114 
  17    7 -0.0107500754501   37    6  0.0087687892943   29    4  0.0055077469963 

   A    B    I    J                     A    B    I    J                  
------------------------------------ ------------------------------------ 
  13   13    7    7 -0.0502929803803   13    9    5    5 -0.0257424788861 
  12   12    7    7 -0.0502929803803    9   13    5    5 -0.0257424788861 
  12   12    6    6 -0.0497937415216   15   13    5    5 -0.0245484833154 
  13   13    5    5 -0.0497937415216   13   15    5    5 -0.0245484833154 
  13   12    5    6 -0.0357813392139   16   12    6    6 -0.0245484833154 
  12   13    6    5 -0.0357813392139   12   16    6    6 -0.0245484833154 
  10   12    6    6 -0.0257424788861   29   29    7    7 -0.0243030363295 
  12   10    6    6 -0.0257424788861 

It.  Correlation Energy T1 Residual T2 Residual T3 Residual CPU Time (s) Walltime (s)
-------------------------------------------------------------------------------------
  6  -0.382661440599421 1.77060e-07 4.51668e-08 2.30352e-07     2334.853      164.926
  7  -0.382661388399724 2.85811e-08 1.61542e-08 3.84840e-08     2301.850      163.323

CC4 iterations converged in 7 cycles and 1147.165 seconds (163.881 s/it.) at 5.074 Gflops/sec

Total CC4 energy: -113.163399087446322

             _
Formation of H took 1.409 seconds at 24.835 Gflops/sec

Searching for 3 roots in irrep 1

EOMEE-CCSD guess vector:

   A    I                  
-------------------------- 
   8    7  1.0000000000000 

Beginning iterative solution of EOMEE-CC4 equations:

It.  Correlation Energy R1 Residual R2 Residual R3 Residual CPU Time (s) Walltime (s)
-------------------------------------------------------------------------------------
  1   0.531468920186878 2.21516e-02 6.01546e-02 3.95617e-03     5515.176      368.361
  2   0.463199277412955 6.42063e-02 4.03293e-02 2.23542e-03     5511.929      368.222
  3   0.416281918302414 1.46070e-02 1.21538e-02 4.68550e-03     5481.357      366.865
  4   0.410300407359503 1.29682e-02 8.60089e-03 2.34662e-03     5463.286      365.144
  5   0.405941226500398 3.23869e-03 8.57297e-03 1.04744e-03     5426.367      363.243
  6   0.403191707301224 3.99345e-03 2.58162e-03 7.06916e-04     5469.805      366.123
  7   0.403450238703758 3.10629e-03 1.22262e-03 4.14508e-04     5511.941      368.338
Locking on root: 0.403459496226650
  8   0.403459496226650 3.31193e-03 5.82888e-04 2.83655e-04     5538.803      370.193
  9   0.402889659904473 2.33241e-03 1.04655e-03 2.25527e-04     5498.156      366.819
 10   0.402865741480278 2.52743e-03 8.79256e-04 1.60191e-04     5517.534      367.915
 11   0.403121382344185 2.20852e-03 5.84207e-04 1.62454e-04     5522.788      369.002
 12   0.402866478534867 9.17674e-04 4.12790e-04 1.00644e-04     5574.244      371.402
 13   0.402777086156601 7.58775e-04 2.04376e-04 6.64023e-05     5587.646      372.278
 14   0.402861820840888 3.12329e-04 1.64876e-04 3.48983e-05     5597.857      372.004
 15   0.402833545601917 1.61870e-04 1.21503e-04 2.27563e-05     5638.202      374.937
 16   0.402805608544786 6.67776e-05 6.99538e-05 1.22271e-05     5604.539      372.552
 17   0.402813483822481 2.33424e-05 3.55781e-05 6.50743e-06     5679.405      376.780
 18   0.402819304534765 1.52536e-05 2.09011e-05 4.07629e-06     5690.216      376.614
 19   0.402817526623674 7.79120e-06 1.19882e-05 2.35134e-06     5750.801      381.605
Compacting subspace
 20   0.402816585799715 3.39932e-06 5.66876e-06 1.05899e-06     5959.894      390.808

EOMEE-CC4 iterations converged in 20 cycles and 7429.206 seconds (371.460 s/it.) at 4.893 Gflops/sec

EOMEE-CC4 excitation energy:   0.402816585799712 ( 10.961196556074968 eV)
Total EOMEE-CC4 energy:      -112.760582501646610

Converged root:

   A    I                     A    I                     A    I                  
-------------------------- -------------------------- -------------------------- 
   8    7  0.6042712317233   13    5  0.0691928458644   24    5  0.0240933616995 
  11    7  0.1652898255373   10    6  0.0356547805816   20    7 -0.0211871167245 
  17    7 -0.1596782706390    9    5  0.0356547805815   29    7 -0.0132098424705 
  14    7 -0.0967241071053   26    7  0.0253880784015   38    5  0.0115491576492 
  12    6  0.0691928458645   25    6  0.0240933616995   37    6  0.0115491576492 

   A    B    I    J                     A    B    I    J                  
------------------------------------ ------------------------------------ 
   8    8    7    7 -0.0671239505534    8   25    7    6  0.0427938078206 
  12    8    6    7  0.0659200660618   24    8    5    7  0.0427938078206 
   8   12    7    6  0.0659200660618    8   24    7    5  0.0427938078206 
  13    8    5    7  0.0659200660618   11    8    7    7 -0.0411299681297 
   8   13    7    5  0.0659200660618    8   11    7    7 -0.0411299681297 
  29    8    7    7  0.0466366493411    8   12    6    7  0.0400412764710 
   8   29    7    7  0.0466366493411   12    8    7    6  0.0400412764710 
  25    8    6    7  0.0427938078206 

EOMEE-CCSD guess vector:

   A    I                  
-------------------------- 
  11    7  1.0000000000000 

Beginning iterative solution of EOMEE-CC4 equations:

It.  Correlation Energy R1 Residual R2 Residual R3 Residual CPU Time (s) Walltime (s)
-------------------------------------------------------------------------------------
  1   0.531532670130613 8.26150e-02 7.53040e-02 2.49928e-03     5405.754      363.080
  2   0.440710574207036 4.10124e-02 9.10052e-03 6.87649e-03     5397.973      362.202
  3   0.428862793954906 1.53836e-02 3.78007e-03 1.49770e-03     5442.893      364.963
  4   0.426278326278051 4.94981e-03 2.18928e-03 1.40027e-03     5440.375      364.664
  5   0.424089093264094 2.46830e-03 2.77375e-03 6.05840e-04     5456.056      365.152
  6   0.423357886914133 2.29467e-03 1.75592e-03 3.51056e-04     5472.382      366.222
  7   0.423534713497293 8.06042e-04 1.43132e-03 2.65529e-04     5562.685      373.091
  8   0.423478027761346 5.27195e-04 1.02785e-03 1.82155e-04     5566.015      372.000
  9   0.423374184152299 4.56630e-04 4.25984e-04 8.67864e-05     5540.898      369.403
 10   0.423442797549382 2.58342e-04 1.89264e-04 5.24989e-05     5577.377      371.553
Locking on root: 0.423445580676362
 11   0.423445580676362 1.31072e-04 1.11136e-04 2.70148e-05     5566.165      371.162
 12   0.423411154932968 9.35700e-05 3.98323e-05 1.24870e-05     5574.880      370.493
 13   0.423417001482747 3.78397e-05 3.34444e-05 6.78042e-06     5682.137      376.873
 14   0.423423541618087 2.04356e-05 1.28614e-05 4.11055e-06     5621.371      373.386
 15   0.423420933485924 1.23059e-05 5.38605e-06 1.68160e-06     5694.738      377.303
 16   0.423420522933163 8.03451e-06 3.26324e-06 8.44018e-07     5750.425      379.946

EOMEE-CC4 iterations converged in 16 cycles and 5921.492 seconds (370.093 s/it.) at 4.899 Gflops/sec

EOMEE-CC4 excitation energy:   0.423420522933156 ( 11.521858188962613 eV)
Total EOMEE-CC4 energy:      -112.739978564513166

Converged root:

   A    I                     A    I                     A    I                  
-------------------------- -------------------------- -------------------------- 
  11    7  0.6307513385715   20    7 -0.0506389687877   25    6  0.0197463507652 
   8    7 -0.1573896290679   13    5  0.0404775839200   11    4 -0.0143283651828 
  17    7  0.1134439121643   12    6  0.0404775839197   26    7  0.0134571184275 
  23    7  0.0658134783408    8    4 -0.0221546389589   20    4  0.0133254789205 
  14    7 -0.0634296261724   24    5  0.0197463507653   16    6 -0.0121307600075 

   A    B    I    J                     A    B    I    J                  
------------------------------------ ------------------------------------ 
  11   11    7    7 -0.0813077969535   11   24    7    5  0.0389788987978 
  13   11    5    7  0.0508046852378   25   11    6    7  0.0389788987978 
  11   13    7    5  0.0508046852378   11   25    7    6  0.0389788987978 
  12   11    6    7  0.0508046852378   23   11    7    7 -0.0387135258798 
  11   12    7    6  0.0508046852378   11   23    7    7 -0.0387135258798 
  29   11    7    7  0.0453389191807   11   12    6    7  0.0370358141683 
  11   29    7    7  0.0453389191807   12   11    7    6  0.0370358141683 
  24   11    5    7  0.0389788987978 

EOMEE-CCSD guess vector:

   A    I                  
-------------------------- 
  14    7  1.0000000000000 

Beginning iterative solution of EOMEE-CC4 equations:

It.  Correlation Energy R1 Residual R2 Residual R3 Residual CPU Time (s) Walltime (s)
-------------------------------------------------------------------------------------
  1   0.634013316705546 1.50800e-01 4.03091e-02 3.75134e-03     5444.785      365.116
  2   0.527177068578050 5.59241e-02 1.23371e-02 3.58909e-03     5468.233      366.555
  3   0.511222133383974 2.27623e-02 4.67392e-03 2.02465e-03     5452.785      365.451
  4   0.508427226239694 8.63747e-03 2.26292e-03 1.26175e-03     5426.265      363.674
  5   0.503742480979806 8.20253e-03 2.24034e-03 1.12704e-03     5441.508      364.547
  6   0.500762268738061 6.93280e-03 2.46689e-03 1.07295e-03     5480.443      367.394
  7   0.498789741547194 7.63513e-03 3.93056e-03 1.40080e-03     5448.797      364.583
  8   0.496209403295399 5.55999e-03 3.55263e-03 8.77867e-04     5495.627      367.883
  9   0.494497551833005 2.76587e-03 2.75648e-03 5.24595e-04     5528.738      368.440
 10   0.494671807127033 2.80435e-03 1.98081e-03 3.58809e-04     5546.751      370.470
 11   0.494605397818631 1.66311e-03 1.22346e-03 2.29740e-04     5547.795      370.173
 12   0.494383810456827 8.49168e-04 7.98419e-04 1.46692e-04     5581.239      371.356
Locking on root: 0.494366833968940
 13   0.494366833968940 5.45166e-04 4.51755e-04 7.74342e-05     5618.085      373.655
 14   0.494429933275581 2.86823e-04 2.10466e-04 3.56418e-05     5671.434      375.851
 15   0.494397506501400 1.08421e-04 8.97558e-05 2.07608e-05     5678.021      376.680
 16   0.494377456232092 9.02483e-05 4.92815e-05 9.48188e-06     5689.215      378.090
 17   0.494392801609769 5.85266e-05 3.51947e-05 4.72486e-06     5748.075      380.386
 18   0.494389466243845 4.84775e-05 1.83031e-05 3.07641e-06     5771.488      381.052
 19   0.494390970060387 3.03856e-05 1.09191e-05 2.30172e-06     5788.983      382.457
Compacting subspace
 20   0.494388522892494 2.33800e-03 5.03913e-05 4.73812e-06     6155.558      400.224
 21   0.494388689485356 1.82047e-05 6.31392e-06 1.92036e-06     5539.580      369.829
 22   0.494390842765067 1.17833e-05 5.89416e-06 1.32451e-06     5544.351      369.432
 23   0.494389340503566 6.30242e-06 2.48491e-06 7.53894e-07     5629.481      373.866

EOMEE-CC4 iterations converged in 23 cycles and 8567.165 seconds (372.485 s/it.) at 4.894 Gflops/sec

EOMEE-CC4 excitation energy:   0.494389340503560 ( 13.453017893315508 eV)
Total EOMEE-CC4 energy:      -112.669009746942763

Converged root:

   A    I                     A    I                     A    I                  
-------------------------- -------------------------- -------------------------- 
  14    7 -0.4167747265333    8    7 -0.1476346376886   26    7  0.0571984374167 
  10    6  0.2263245149857   17    7 -0.1196371890235   17    4  0.0491184044630 
   9    5  0.2263245149207   20    7  0.0990470343907   29    7 -0.0435794754984 
  13    5  0.2092175849013   11    7 -0.0875449406638   16    6  0.0360322611449 
  12    6  0.2092175848054    8    4 -0.0870882680536   15    5  0.0360322611244 

   A    B    I    J                     A    B    I    J                  
------------------------------------ ------------------------------------ 
  13   13    5    5 -0.0568759223905   12   10    6    6 -0.0422666506429 
  12   12    6    6 -0.0568759223853   10   12    6    6 -0.0422666506429 
  13   14    5    7 -0.0464390589147    9    9    5    5 -0.0364791171301 
  14   13    7    5 -0.0464390589147   10   10    6    6 -0.0364791171054 
  12   14    6    7 -0.0464390588858   29   14    7    7 -0.0333080704496 
  14   12    7    6 -0.0464390588858   14   29    7    7 -0.0333080704496 
  13    9    5    5 -0.0422666506538   12   13    6    5 -0.0319280228662 
   9   13    5    5 -0.0422666506538 

Searching for 2 roots in irrep 2

EOMEE-CCSD guess vector:

   A    I                  
-------------------------- 
  10    7  1.0000000000000 

Beginning iterative solution of EOMEE-CC4 equations:

It.  Correlation Energy R1 Residual R2 Residual R3 Residual CPU Time (s) Walltime (s)
-------------------------------------------------------------------------------------
  1   0.501046968349536 3.02993e-02 5.91827e-02 3.21084e-03     5337.312      358.193
  2   0.444713336552172 1.23516e-01 2.47568e-02 1.90978e-03     5344.871      358.886
  3   0.372213721799993 4.14453e-02 1.20305e-02 2.74451e-03     5388.435      360.877
  4   0.341083453266708 4.44465e-02 9.65295e-03 3.70319e-03     5361.897      358.997
  5   0.321567254857886 2.08660e-02 4.41832e-03 2.49184e-03     5324.958      357.247
  6   0.313134146055651 4.58944e-03 3.12141e-03 8.26436e-04     5407.163      361.290
  7   0.311585464643689 2.66756e-03 1.24300e-03 6.12932e-04     5381.624      360.390
  8   0.311775009076612 1.49184e-03 7.09951e-04 2.20269e-04     5418.065      362.918
  9   0.311585808299402 3.80916e-04 5.31618e-04 1.27562e-04     5396.657      361.601
Locking on root: 0.311556026459207
 10   0.311556026459207 3.68113e-04 3.48754e-04 7.22223e-05     5416.988      362.068
 11   0.311587742289684 1.74590e-04 1.38889e-04 3.18343e-05     5441.643      363.637
 12   0.311586528301108 9.37032e-05 6.01456e-05 1.21340e-05     5467.259      364.579
 13   0.311586304070930 4.64726e-05 3.53302e-05 9.71357e-06     5476.112      365.186
 14   0.311593253744634 1.51718e-05 1.55441e-05 6.27883e-06     5483.578      365.514
 15   0.311592176767241 7.14284e-06 7.51141e-06 2.44560e-06     5509.903      367.021

EOMEE-CC4 iterations converged in 15 cycles and 5428.405 seconds (361.894 s/it.) at 4.759 Gflops/sec

EOMEE-CC4 excitation energy:   0.311592176767235 (  8.478854186453797 eV)
Total EOMEE-CC4 energy:      -112.851806910679088

Converged root:

   A    I                     A    I                     A    I                  
-------------------------- -------------------------- -------------------------- 
  12    7 -0.4958391472820   21    7 -0.0730980004777   21    4 -0.0233958435386 
  10    7 -0.3898567603908   10    4 -0.0379076635503   46    7 -0.0223579430571 
  16    7 -0.1805384592879   31    7 -0.0323066514215   37    7  0.0191915536896 
  12    4 -0.0866043990353   25    4 -0.0312883160081   19    6  0.0165089320049 
  25    7 -0.0765981744002   16    4 -0.0265296289383   18    5  0.0165089320049 

   A    B    I    J                     A    B    I    J                  
------------------------------------ ------------------------------------ 
  12   12    6    4  0.0423426091734   13   12    5    4  0.0289660685598 
  12   12    4    6  0.0423426091734   12   13    4    5  0.0289660685598 
  12   10    6    7 -0.0365811575960   12   29    7    7 -0.0286102210345 
  10   12    7    6 -0.0365811575960   29   12    7    7 -0.0286102210345 
  12   12    6    7 -0.0355264628657   13   10    5    7 -0.0279608016967 
  12   12    7    6 -0.0355264628657   10   13    7    5 -0.0279608016967 
  10   12    6    7 -0.0298634987916   12   10    6    4  0.0277974319402 
  12   10    7    6 -0.0298634987916 

EOMEE-CCSD guess vector:

   A    I                  
-------------------------- 
  12    7  1.0000000000000 

Beginning iterative solution of EOMEE-CC4 equations:

It.  Correlation Energy R1 Residual R2 Residual R3 Residual CPU Time (s) Walltime (s)
-------------------------------------------------------------------------------------
  1   0.677360525083785 7.80563e+00 4.30134e-02 4.66455e-03     5315.388      357.472
  2   0.532040924333812 5.26218e-02 3.24082e-02 3.39423e-03     5339.484      358.317
  3   0.443471473152395 2.98084e-02 6.92775e-03 3.42733e-03     5354.320      359.789
  4   0.435985728949525 1.66623e-02 3.42563e-03 1.50212e-03     5345.352      359.339
  5   0.433570559493271 3.59864e-03 2.26342e-03 6.59359e-04     5364.437      359.974
  6   0.431228803034358 4.33453e-03 1.42403e-03 5.24693e-04     5358.052      358.595
  7   0.430863707308977 1.62190e-03 1.11038e-03 3.31164e-04     5365.236      359.232
  8   0.431096186215326 2.15669e-03 9.47233e-04 2.40561e-04     5383.990      360.567
  9   0.430690319178825 7.53856e-04 1.16620e-03 2.23230e-04     5396.957      361.772
 10   0.430581512785797 9.98796e-04 7.52042e-04 1.50617e-04     5435.655      363.206
