 --invoking executable--
/home/CEISAM/blondel-a/soft/cfour2.1/cfour2.1-serial-mkl/bin/xjoda


   *************************************************************************
         <<<     CCCCCC     CCCCCC   |||     CCCCCC     CCCCCC   >>>
       <<<      CCC        CCC       |||    CCC        CCC         >>>
      <<<      CCC        CCC        |||   CCC        CCC            >>>
    <<<        CCC        CCC        |||   CCC        CCC              >>>
      <<<      CCC        CCC        |||   CCC        CCC            >>>
       <<<      CCC        CCC       |||    CCC        CCC         >>>
         <<<     CCCCCC     CCCCCC   |||     CCCCCC     CCCCCC   >>>
   *************************************************************************

     ****************************************************************
     * CFOUR Coupled-Cluster techniques for Computational Chemistry *
     ****************************************************************
 

   Department of Chemistry                Institut fuer Physikalische Chemie
   University of Florida                  Universitaet Mainz
   Gainesville, FL 32611, USA             D-55099 Mainz, Germany

   Department of Chemistry                Fakultaet fuer Chemie und Biowiss.
   Johns Hopkins University               Karlsruher Institut fuer Technologie
   Baltimore, MD 21218, USA               D-76131 Karlsruhe, Germany

   Department of Chemistry                Department of Physical Chemistry
   Southern Methodist University          Eotvos Lorand University
   Dallas, TX 75275, USA                  H-1053 Budapest, Hungary

 
                       Version 2.1
 
                     cribbar041                                        
                     Tue Mar 16 17:33:19 CET 2021                      
                     integer*8 version is running
 
********************************************************************************
*                          Input from ZMAT file                                *
********************************************************************************
Ketene -GS                                                                      
C     0.0000000000            0.0000000000           -1.2494205467              
O     0.0000000000            0.0000000000            0.8926669184              
                                                                                
*CFOUR(COORD=CARTESIAN,UNITS=BOHR                                               
       MEMORY=250,MEM_UNIT=GB,CC_PROG=NCC                                       
       FROZEN_CORE=1                                                            
       CALC=CCSDT,BASIS=AUG-PVTZ                                                
       SCF_CONV=8,CC_CONV=7,ESTATE_CONV=5,ESTATE_MAXCYC=120                     
       EXCITE=EOMEE,ESTATE_SYM=3/2/0/2)                                         
                                                                                
********************************************************************************
    -------------------------------------------------------------------
                    CFOUR Control Parameters 
    -------------------------------------------------------------------
        External           Internal           Value            Units
          Name               Name
    -------------------------------------------------------------------
       ABCDTYPE             IABCDT         STANDARD    [  0]    ***   
       ANHARMONIC           IANHAR         OFF         [  0]    ***   
       ANH_ALGORIT          IANALG         STANDARD    [  0]    ***   
       ANH_DERIVAT          IANDER         SECOND      [  1]    ***   
       ANH_MODE             ANHMOD         VIBRATION   [  0]    ***   
       ANH_STEPSIZ          ICUBST             50000          x 10-6  
       ANH_SYMMETR          IANHSM         ABELIAN     [  0]    ***   
       AO_LADDERS           IAOLAD         SINGLEPASS  [  1]    ***   
       AV_SCF               IAVSCF         OFF         [  0]    ***   
       BASIS                IBASIS         AUG-PVTZ    [ 34]    ***   
       BOTHVECTORS          BOTHVC         OFF         [  0]    ***   
       BOX_POTENT           IPIAB          OFF         [  0]    ***   
       BREIT                IBREIT         OFF         [  0]    ***   
       BRUCK_CONV           IBRTOL          10D-  4             ***   
       BRUECKNER            IBRKNR         OFF         [  0]    ***   
       BUFFERSIZE           IBUFFS              4096            ***   
       CACHE_RECS           ICHREC             10               ***   
       CALCLEVEL            ICLLVL         CCSDT       [ 18]    ***   
       CCORBOPT             ICCORB         OFF         [  0]  x 0.01  
       CC_CONV              ICCCNV          10D-  7             ***   
       CC_EXPORDER          ICCEOR              5               ***   
       CC_EXTRAPOL          ICCEXT         DIIS        [  1]    ***   
       CC_GUESS             ICCGES         MP2         [  0]    ***   
       CC_MAXCYC            ICCCYC            100              cycles 
       CC_PROGRAM           ICCPRO         NCC         [  5]    ***   
       CHARGE               ICHRGE              0               ***   
       CHOLESKY             ICHOLE         OFF         [  0]    ***   
       CIS_CONV             ICISTL              5               ***   
       COMM_SIZE            IPSIZE            ***               ***   
       CONSTANT             ICONST         OLD         [  1]    ***   
       CONTINUUM            ICONTU         NONE        [  0]    ***   
       CONTRACTION          ICNTYP         GENERAL     [  1]    ***   
       COORDINATES          ICOORD         CARTESIAN   [  1]    ***   
       CPHF_CONVER          ICPHFT          10D- 16             ***   
       CPHF_MAXCYC          ICPHFC             64              cycles 
       CUBIC                ICUBIC         OFF         [  0]    ***   
       CURVILINEAR          ICURVY         OFF         [  0]    ***   
       DBOC                 IDBOC          OFF         [  0]    ***   
       DCT                  IDCT           OFF         [  0]    ***   
       DERIV_LEV            IDRLVL         ZERO        [  0]    ***   
       DEVMEM_SIZE          IDVMEM         *********           MByte  
       DIAG_MRCC            IEOMST          10D-  0             ***   
       DIFF_TYPE            IDIFTY         RELAXED     [  0]    ***   
       DIRECT               IDIRCT         OFF         [  0]    ***   
       DROPMO               IDRPMO      NONE         
       ECP                  IECP           OFF         [  0]    ***   
       EIGENVECTOR          IVEC                1               ***   
       EL_ANHARM            IELANH         OFF         [  0]    ***   
       EOMFOLLOW            IEOMSR         ENERGY      [  0]    ***   
       EOMIP                IEOMIP         OFF         [  0]    ***   
       EOMLEVEL             HBARFM         SAME        [  0]    ***   
       EOM_MRCC             IMRCCE         NEW         [  1]    ***   
       EOM_NONIT            EOMNON         OFF         [  0]    ***   
       EOM_NSING            IEOMSI          10D-  0             ***   
       EOM_NSTATES          IMRCCD         DAVIDSON    [  0]    ***   
       EOM_NTRIP            IEOMTR          10D-  0             ***   
       EOM_ORDER            IEXORD         ENERGY      [  0]    ***   
       EOM_PROPSTA          IEOMST              0               ***   
       ESTATE_CONV          IEXTOL          10D-  5             ***   
       ESTATE_DIAG          IEXDIG         ITERATIVE   [  0]    ***   
       ESTATE_LOCK          IESLOC         ON          [  1]    ***   
       ESTATE_MAXC          IEXMXC            120               ***   
       ESTATE_PROP          IEXPRP         OFF         [  0]    ***   
       ESTATE_SYM           IEXSYM   3,  2,  0,  2,
       EVAL_HESS            IRECAL              0            # of cyc.
       EXCITATION           IEXCIT              0               ***   
       EXCITE               IEXCIT         EOMEE       [  3]    ***   
       EXTERN_POT           IEXPOT         OFF         [  0]    ***   
       FCGRADNEW            IFCGNW         OFF         [  0]    ***   
       FC_FIELD             IFINFC              0             x 10-6  
       FD_CALTYPE           IFDCAL         GRADONLY    [  0]    ***   
       FD_PROJECT           IFDPRJ         OFF         [  1]    ***   
       FD_STEPSIZE          IDISFD              0            10-4 bohr
       FD_USEGROUP          IFDGRP         FULL        [  0]    ***   
       FILE_RECSIZ          IFLREC              4096           words  
       FINITE_PERT          IFIPER              0             x 10-6  
       FIXGEOM              IFIXGM         OFF         [  0]    ***   
       FOCK                 IFOCK          AO          [  1]    ***   
       FREQ_ALGORI          IVIALG         STANDARD    [  0]    ***   
       FROZEN_CORE          IFROCO         ON          [  1]    ***   
       GAMMA_ABCD           IGABCD         STORE       [  0]    ***   
       GAMMA_ABCI           IGABCI         STORE       [  0]    ***   
       GENBAS_1             IGNBS1              0               ***   
       GENBAS_2             IGNBS2              0               ***   
       GENBAS_3             IGNBS3              0               ***   
       GENBAS_4             IGNBS4              0               ***   
       GEO_CONV             ICONTL              5              H/bohr 
       GEO_MAXCYC           IOPTCY             50               ***   
       GEO_MAXSTEP          IMXSTP            300            millibohr
       GEO_METHOD           INR            SINGLE_POINT[  5]    ***   
       GIAO                 IGIAO          OFF         [  1]    ***   
       GIMIC                IGIMIC         OFF         [  0]    ***   
       GRID                 IGRID          OFF         [  0]    ***   
       GRID_ALGO            IGALGO         SERIAL      [  0]    ***   
       GUESS                IGUESS         MOREAD      [  0]    ***   
       HBAR                 IHBAR          ON          [  1]    ***   
       HESS_TYPE            IHESTP         SCF         [  0]    ***   
       HF2_FILE             IHF2Fl         USE         [  1]    ***   
       HFSTABILITY          ISTABL         OFF         [  0]    ***   
       INCORE               INCORE         OFF         [  0]    ***   
       INPUT_MRCC           IMRCC          ON          [  1]    ***   
       INTEGRALS            INTTYP         VMOL        [  1]    ***   
       JODA_PRINT           IJPRNT              0               ***   
       KEYWORD_OUT          IDMPKW         NO          [  0]    ***   
       LINDEP_TOL           ILINDP              8               ***   
       LINEQ_CONV           IZTACN          10D-  7           cycles  
       LINEQ_EXPOR          ILMAXD              5               ***   
       LINEQ_MAXCY          ILMAXC            100               ***   
       LINEQ_TYPE           ILTYPE         DIIS        [  1]    ***   
       LOCK_ORBOCC          ILOCOC         OFF         [  0]    ***   
       MEMORY_SIZE          IMEMSZ         *********           words  
       MEM_UNIT             IMEMU          GB          [  3]    ***   
       MRCC                 IMRCCC         OFF         [  0]    ***   
       MULTIPLICTY          IMULTP              1               ***   
       NACOUPLING           IVCOUP         OFF         [  0]    ***   
       NEGEVAL              IDIE           ABORT       [  0]    ***   
       NEWNORM              INEWNO         OFF         [  0]    ***   
       NON-HF               INONHF         OFF         [  0]    ***   
       NTOP_TAMP            ITOPT2             15               ***   
       NUC_MODEL            INUCMO         POINT       [  0]    ***   
       OCCUPATION           IOCCU   ESTIMATED BY SCF 
       OPEN-SHELL           IOPEN          SPIN-ORBITAL[  0]    ***   
       OPTVIB               IOPTVB         OFF         [  0]    ***   
       ORBITALS             IORBTP         STANDARD    [  0]    ***   
       PARALLEL             IPARAL         ON          [  1]    ***   
       PARA_INT             IPINTS         ON          [  1]    ***   
       PARA_PRINT           IPPRIN              0               ***   
       PERT_ORB             IPTORB         STANDARD    [  0]    ***   
       POINTS               IGRDFD              0               ***   
       PRINT                IPRNT               0               ***   
       PROPS                IPROPS         OFF         [  0]    ***   
       PROP_INTEGR          IINTYP         INTERNAL    [  0]    ***   
       PSI                  IPSI           OFF         [  0]    ***   
       QC_ALG               IQCALG         FLM         [  0]    ***   
       QC_LINALG            IQCLIN         TRIDIAG     [  2]    ***   
       QC_MAXCYC            IQCMAX          10D-100           cycles  
       QC_MAXSCFCY          IQCMSC          10D- 15           cycles  
       QC_RTRUST            IQCRTR          10D-  0           x 10-3  
       QC_SKIPSCF           IQCSKI         OFF         [  0]    ***   
       QC_START             IQCSTA          10D-  1             ***   
       QRHFGUESS            IQGUES         OFF         [  0]    ***   
       QUARTIC              IQUART         OFF         [  0]    ***   
       RAMAN_INT            IRAMIN         OFF         [  0]    ***   
       RAMAN_ORB            IRAMRE         UNRELAXED   [  0]    ***   
       RDO                  IRDOFM         OFF         [  0]    ***   
       REDUCE_REPR          REDREP         Ir          [  0]    ***   
       REFERENCE            IREFNC         RHF         [  0]    ***   
       RELATIVIST           IRELAT         OFF         [  0]    ***   
       RELAX_DENS           IRDENS         OFF         [  0]    ***   
       RESET_FLAGS          IRESET         OFF         [  0]    ***   
       RESTART_CC           ICCRES         OFF         [  0]    ***   
       ROT_EVEC             ROTVEC              0               ***   
       SAVE_INTS            ISVINT         OFF         [  0]    ***   
       SCALE_ON             ISTCRT              0               ***   
       SCF_CONV             ISCFCV          10D-  8             ***   
       SCF_DAMPING          IDAMP               0             x 10-3  
       SCF_EXPORDE          IRPPOR              6               ***   
       SCF_EXPSTAR          IRPPLS              8               ***   
       SCF_EXTRAPO          IRPP           ON          [  1]    ***   
       SCF_MAXCYC           ISCFCY            150              cycles 
       SCF_NOSTOP           ISCFST         OFF         [  0]    ***   
       SCF_PRINT            ISCFPR              0               ***   
       SCF_PROG             ISCFPR         SCF         [  0]    ***   
       SD_FIELD             IFINSD              0             x 10-6  
       SOPERT               IPERSO         OFF         [  0]    ***   
       SPHERICAL            IDFGHI         ON          [  1]    ***   
       SPINORBIT            ISOCAL         OFF         [  0]    ***   
       SPINROTATIO          ISRCON         OFF         [  0]    ***   
       SPIN_FLIP            ISPFLP         OFF         [  0]    ***   
       SPIN_ORBIT           ISPORB         OFF         [  0]    ***   
       SPIN_SCAL            ISCSMP         OFF         [  0]    ***   
       STEEPSCALE           ISTPSC              1000          x 10-3  
       SUBGROUP             ISUBGP         DEFAULT     [  0]    ***   
       SUBGRPAXIS           ISBXYZ         X           [  0]    ***   
       SYMMETRY             ISYM           ON          [  0]    ***   
       SYM_CHECK            ISYMCK         OVERRIDE    [  1]    ***   
       T3_EXTRAPOL          IT3EXT         OFF         [  0]    ***   
       T4_EXTRAPOL          IT4EXP         OFF         [  0]    ***   
       TAMP_SUM             IEVERY              5               ***   
       TESTSUITE            ITESTS         OFF         [  0]    ***   
       THERMOCH             ITHERM         OFF         [  0]    ***   
       TOL_CHOLESK          ITOLCH          10D-  4             ***   
       TRANGRAD             IRESRM         OFF         [  0]    ***   
       TRANS_INV            ITRAIN         USE         [  0]    ***   
       TREAT_PERT           ITREAT         SIMULTANEOUS[  0]    ***   
       TRIP_ALGORI          ITRALG         NORMAL      [  0]    ***   
       UIJ_THRESHO          IUIJTH              1               ***   
       UNITS                IUNITS         BOHR        [  1]    ***   
       UNOS                 IUNOS          OFF         [  0]    ***   
       UPDATE_HESS          IHUPDT         ON          [  1]    ***   
       VIBPHASE             ISETPH         STANDARD    [  0]    ***   
       VIBRATION            IVIB           NO          [  0]    ***   
       VIB_ALGORIT          IGEALG         STANDARD    [  0]    ***   
       VNATORB              IVNORB         OFF         [  0]    ***   
       VTRAN                IVTRAN         FULL/PARTIAL[  0]    ***   
       XFIELD               IXEFLD              0             x 10-6  
       XFORM_TOL            IXFTOL          10D- 11             ***   
       YFIELD               IYEFLD              0             x 10-6  
       ZFIELD               IZEFLD              0             x 10-6  
       ZSCALE_EXP           IZEXPS         OFF         [  0]    ***   
    -------------------------------------------------------------------
  @GETXYZ-I,     2 atoms read from ZMAT.
   Rotational constants (in cm-1): 
          1.9135333977             1.9135333977
   Rotational constants (in MHz): 
      57366.2961120363         57366.2961120363
********************************************************************************
   The full molecular point group is CXv .
   The largest Abelian subgroup of the full molecular point group is C2v .
   The computational point group is C2v .
********************************************************************************


 ----------------------------------------------------------------
         Coordinates used in calculation (QCOMP) 
 ----------------------------------------------------------------
 Z-matrix   Atomic            Coordinates (in bohr)
  Symbol    Number           X              Y              Z
 ----------------------------------------------------------------
     C         6        -0.00000000     0.00000000     1.22388322
     O         8         0.00000000     0.00000000    -0.91820425
 ----------------------------------------------------------------
 
   Interatomic distance matrix (Angstroms) 
 
                 C             O    
                [ 1]        [ 2]
  C    [ 1]     0.00000
  O    [ 2]     1.13354     0.00000
 rotcon2
   Rotational constants (in cm-1): 
          1.9135333977             0.0000000000
   Rotational constants (in MHz): 
      57366.2961120363             0.0000000000
  There are   2 frozen-core orbitals.
  There are   92 basis functions.
 @GEOPT-W, Archive file not created for single-point calculation.
 @CHECKOUT-I, Total execution time (CPU/WALL):        0.17/       1.53 seconds.
--executable xjoda finished with status     0 in        2.53 seconds (walltime).
 --invoking executable--
/home/CEISAM/blondel-a/soft/cfour2.1/cfour2.1-serial-mkl/bin/xvmol
 SERIAL VERSION OF MOLECULE STARTED
********************************************************************************
                    INPUT FROM MOL FILE
********************************************************************************
INTGRL        1    0    1    0    0    0    0    0    0                         
         *** CFOUR Program System (Release V0.1) ***                            
Ketene -GS                                                                      
    2    2 X  Y       0.10E-08              0    0                              
   9999.00      3.00                                                            
          6.00000000    1    4    1    1    1    1                              
C #1  -0.000000000000000   0.000000000000000   1.223883215473396                
   11    5                                                                      
   8236.00000000000       5.310000000000000E-004 -1.130000000000000E-004        
  0.000000000000000E+000  0.000000000000000E+000  0.000000000000000E+000        
   1235.00000000000       4.108000000000000E-003 -8.780000000000000E-004        
  0.000000000000000E+000  0.000000000000000E+000  0.000000000000000E+000        
   280.800000000000       2.108700000000000E-002 -4.540000000000000E-003        
  0.000000000000000E+000  0.000000000000000E+000  0.000000000000000E+000        
   79.2700000000000       8.185300000000000E-002 -1.813300000000000E-002        
  0.000000000000000E+000  0.000000000000000E+000  0.000000000000000E+000        
   25.5900000000000       0.234817000000000      -5.576000000000000E-002        
  0.000000000000000E+000  0.000000000000000E+000  0.000000000000000E+000        
   8.99700000000000       0.434401000000000      -0.126895000000000             
  0.000000000000000E+000  0.000000000000000E+000  0.000000000000000E+000        
   3.31900000000000       0.346129000000000      -0.170352000000000             
  0.000000000000000E+000  0.000000000000000E+000  0.000000000000000E+000        
  0.905900000000000       3.937800000000000E-002  0.140382000000000             
   1.00000000000000       0.000000000000000E+000  0.000000000000000E+000        
  0.364300000000000      -8.983000000000000E-003  0.598684000000000             
  0.000000000000000E+000  0.000000000000000E+000  0.000000000000000E+000        
  0.128500000000000       2.385000000000000E-003  0.395389000000000             
  0.000000000000000E+000   1.00000000000000       0.000000000000000E+000        
  4.402000000000000E-002  0.000000000000000E+000  0.000000000000000E+000        
  0.000000000000000E+000  0.000000000000000E+000   1.00000000000000             
    6    4                                                                      
   18.7100000000000       1.403100000000000E-002  0.000000000000000E+000        
  0.000000000000000E+000  0.000000000000000E+000                                
   4.13300000000000       8.686600000000000E-002  0.000000000000000E+000        
  0.000000000000000E+000  0.000000000000000E+000                                
   1.20000000000000       0.290216000000000       0.000000000000000E+000        
  0.000000000000000E+000  0.000000000000000E+000                                
  0.382700000000000       0.501008000000000        1.00000000000000             
  0.000000000000000E+000  0.000000000000000E+000                                
  0.120900000000000       0.343406000000000       0.000000000000000E+000        
   1.00000000000000       0.000000000000000E+000                                
  3.569000000000000E-002  0.000000000000000E+000  0.000000000000000E+000        
  0.000000000000000E+000   1.00000000000000                                     
    3    3                                                                      
   1.09700000000000        1.00000000000000       0.000000000000000E+000        
  0.000000000000000E+000                                                        
  0.318000000000000       0.000000000000000E+000   1.00000000000000             
  0.000000000000000E+000                                                        
  0.100000000000000       0.000000000000000E+000  0.000000000000000E+000        
   1.00000000000000                                                             
    2    2                                                                      
  0.761000000000000        1.00000000000000       0.000000000000000E+000        
  0.268000000000000       0.000000000000000E+000   1.00000000000000             
          8.00000000    1    4    1    1    1    1                              
O #2   0.000000000000000   0.000000000000000  -0.918204249626604                
   11    5                                                                      
   15330.0000000000       5.080000000000000E-004 -1.150000000000000E-004        
  0.000000000000000E+000  0.000000000000000E+000  0.000000000000000E+000        
   2299.00000000000       3.929000000000000E-003 -8.950000000000000E-004        
  0.000000000000000E+000  0.000000000000000E+000  0.000000000000000E+000        
   522.400000000000       2.024300000000000E-002 -4.636000000000000E-003        
  0.000000000000000E+000  0.000000000000000E+000  0.000000000000000E+000        
   147.300000000000       7.918100000000000E-002 -1.872400000000000E-002        
  0.000000000000000E+000  0.000000000000000E+000  0.000000000000000E+000        
   47.5500000000000       0.230687000000000      -5.846300000000000E-002        
  0.000000000000000E+000  0.000000000000000E+000  0.000000000000000E+000        
   16.7600000000000       0.433118000000000      -0.136463000000000             
  0.000000000000000E+000  0.000000000000000E+000  0.000000000000000E+000        
   6.20700000000000       0.350260000000000      -0.175740000000000             
  0.000000000000000E+000  0.000000000000000E+000  0.000000000000000E+000        
   1.75200000000000       4.272800000000000E-002  0.160934000000000             
   1.00000000000000       0.000000000000000E+000  0.000000000000000E+000        
  0.688200000000000      -8.154000000000000E-003  0.603418000000000             
  0.000000000000000E+000  0.000000000000000E+000  0.000000000000000E+000        
  0.238400000000000       2.381000000000000E-003  0.378765000000000             
  0.000000000000000E+000   1.00000000000000       0.000000000000000E+000        
  7.376000000000001E-002  0.000000000000000E+000  0.000000000000000E+000        
  0.000000000000000E+000  0.000000000000000E+000   1.00000000000000             
    6    4                                                                      
   34.4600000000000       1.592800000000000E-002  0.000000000000000E+000        
  0.000000000000000E+000  0.000000000000000E+000                                
   7.74900000000000       9.974000000000000E-002  0.000000000000000E+000        
  0.000000000000000E+000  0.000000000000000E+000                                
   2.28000000000000       0.310492000000000       0.000000000000000E+000        
  0.000000000000000E+000  0.000000000000000E+000                                
  0.715600000000000       0.491026000000000        1.00000000000000             
  0.000000000000000E+000  0.000000000000000E+000                                
  0.214000000000000       0.336337000000000       0.000000000000000E+000        
   1.00000000000000       0.000000000000000E+000                                
  5.974000000000000E-002  0.000000000000000E+000  0.000000000000000E+000        
  0.000000000000000E+000   1.00000000000000                                     
    3    3                                                                      
   2.31400000000000        1.00000000000000       0.000000000000000E+000        
  0.000000000000000E+000                                                        
  0.645000000000000       0.000000000000000E+000   1.00000000000000             
  0.000000000000000E+000                                                        
  0.214000000000000       0.000000000000000E+000  0.000000000000000E+000        
   1.00000000000000                                                             
    2    2                                                                      
   1.42800000000000        1.00000000000000       0.000000000000000E+000        
  0.500000000000000       0.000000000000000E+000   1.00000000000000             
FINISH                                                                          
 
********************************************************************************
 ONE- AND TWO-ELECTRON INTEGRALS OVER SYMMETRY-ADAPTED AOS ARE CALCULATED.

  SPHERICAL HARMONICS ARE USED.
  
  INTEGRALS LESS THAN  0.10E-13 ARE NEGLECTED.

  NUCLEAR REPULSION ENERGY :   22.4080485891 A.U.
  @MOLECU-I, ONE ELECTRON INTEGRALS (CPU/WALL):        0.04/       0.07 SECONDS.
  @TWOEL-I,     195611 INTEGRALS OF SYMMETRY TYPE  I I I I
  @TWOEL-I,     731801 INTEGRALS OF SYMMETRY TYPE  I J I J
  @TWOEL-I,     399465 INTEGRALS OF SYMMETRY TYPE  I I J J
  @TWOEL-I,     472704 INTEGRALS OF SYMMETRY TYPE  I J K L
  @TWOEL-I, TOTAL NUMBER OF 2-E INTEGRALS    1799581.
  @MOLECU-I, TWO ELECTRON INTEGRALS (CPU/WALL):       27.18/       1.45 SECONDS.
 @CHECKOUT-I, Total execution time (CPU/WALL):       27.24/       1.55 seconds.

Running with 20 threads/proc

--executable xvmol finished with status     0 in        2.13 seconds (walltime).
 --invoking executable--
/home/CEISAM/blondel-a/soft/cfour2.1/cfour2.1-serial-mkl/bin/xvmol2ja
 @GETMEM-I,  Allocated  238418 MB of main memory.
 @CHECKOUT-I, Total execution time (CPU/WALL):        0.17/       0.07 seconds.
--executable xvmol2ja finished with status     0 in        0.62 seconds (walltime).
 --invoking executable--
/home/CEISAM/blondel-a/soft/cfour2.1/cfour2.1-serial-mkl/bin/xvscf
  There are   92 functions in the AO basis.

  There are 4 irreducible representations.

       Irrep        # of functions
         1                 38
         2                 22
         3                 22
         4                 10


  Parameters for SCF calculation: 
        SCF reference function:  RHF  
  Maximum number of iterations:  150
     Full symmetry point group: CXv 
     Computational point group: C2v 
        Initial density matrix: MOREAD                 
     SCF convergence tolerance: 10**(- 8)
  DIIS convergence acceleration:  ON
          Latest start for DIIS:   8
                     DIIS order:   6

  Memory information:     434642 words required.
  Fock matrices are constructed from AO integral file.
 @GETMEM-I,  Allocated       3 MB of main memory.
  Initialization and symmetry analysis required      0.003 seconds.

  @INITGES-I, Occupancies from core Hamiltonian:

          Alpha population by irrep:   5    1    1    0
           Beta population by irrep:   5    1    1    0


 total no. of electrons in initial guess :  0.000000000000000E+000
  --------------------------------------------------------------------
  Iteration         Total Energy            Largest Density Difference
  --------------------------------------------------------------------
       0            22.408048589070660              0.0000000000D+00
   current occupation vector 
     5  1  1  0
     5  1  1  0
       1           -93.621510780872796              0.1313411998D+02
   current occupation vector 
     5  1  1  0
     5  1  1  0
       2           -97.236175059962747              0.1312977378D+02
   current occupation vector 
     5  1  1  0
     5  1  1  0
       3          -103.512888306911890              0.9956581011D+01
   current occupation vector 
     5  1  1  0
     5  1  1  0
       4          -100.486179412930085              0.7252816518D+01
   current occupation vector 
     5  1  1  0
     5  1  1  0
       5          -103.311521249808266              0.5729123518D+01
   current occupation vector 
     5  1  1  0
     5  1  1  0
       6          -100.396662594627415              0.5727365702D+01
   current occupation vector 
     5  1  1  0
     5  1  1  0
       7          -103.257540083874389              0.5523473181D+01
   current occupation vector 
     5  1  1  0
     5  1  1  0
       8          -100.235828625086612              0.5509754073D+01
   current occupation vector 
     5  1  1  0
     5  1  1  0
       9          -110.840848479787383              0.4228957523D+01
   current occupation vector 
     5  1  1  0
     5  1  1  0
      10          -112.258870155353634              0.9643320498D+00
   current occupation vector 
     5  1  1  0
     5  1  1  0
      11          -112.764469500722811              0.5492764774D+00
   current occupation vector 
     5  1  1  0
     5  1  1  0
      12          -112.780203191673166              0.1017426116D+00
   current occupation vector 
     5  1  1  0
     5  1  1  0
      13          -112.780648917640036              0.2247135586D-01
   current occupation vector 
     5  1  1  0
     5  1  1  0
      14          -112.780734160842542              0.1404540202D-01
   current occupation vector 
     5  1  1  0
     5  1  1  0
      15          -112.780737663311555              0.3792533646D-02
   current occupation vector 
     5  1  1  0
     5  1  1  0
      16          -112.780737698393921              0.3209580902D-03
   current occupation vector 
     5  1  1  0
     5  1  1  0
      17          -112.780737699020904              0.3363955882D-04
   current occupation vector 
     5  1  1  0
     5  1  1  0
      18          -112.780737699045716              0.6181956185D-05
   current occupation vector 
     5  1  1  0
     5  1  1  0
      19          -112.780737699046512              0.1380788778D-05
   current occupation vector 
     5  1  1  0
     5  1  1  0
      20          -112.780737699047307              0.1622117638D-06
   current occupation vector 
     5  1  1  0
     5  1  1  0
      21          -112.780737699047108              0.1785612042D-07
   current occupation vector 
     5  1  1  0
     5  1  1  0

  SCF has converged.

 Density matrix saved to file den.dat
 total electron number:   14.0000000000000     
     E(SCF)=      -112.780737699046597              0.4568787793D-08

  Eigenvector printing suppressed.

 @PUTMOS-I, Writing converged MOs to NEWMOS. 
 @PUTMOS-I, Symmetry   1 Full Blocks  9 Partial Blocksize   2
 @PUTMOS-I, Symmetry   2 Full Blocks  5 Partial Blocksize   2
 @PUTMOS-I, Symmetry   3 Full Blocks  5 Partial Blocksize   2
 @PUTMOS-I, Symmetry   4 Full Blocks  2 Partial Blocksize   2
 @PUTFOCK-I, Writing converged Fock matrix to NEWFOCK. 
 @PUTFOCK-I, Symmetry   1 Full Blocks  9 Partial Blocksize   2
 @PUTFOCK-I, Symmetry   2 Full Blocks  5 Partial Blocksize   2
 @PUTFOCK-I, Symmetry   3 Full Blocks  5 Partial Blocksize   2
 @PUTFOCK-I, Symmetry   4 Full Blocks  2 Partial Blocksize   2


 
  ORBITAL EIGENVALUES (ALPHA)  (1H = 27.2113834 eV)

       MO #        E(hartree)               E(eV)           FULLSYM    COMPSYM
       ----   --------------------   --------------------   -------   ---------
    1     1         -20.6684180932        -562.4162490067     SG+        A1 (1)
    2     2         -11.3643108924        -309.2386207706     SG+        A1 (1)
    3     3          -1.5194102344         -41.3452544289     SG+        A1 (1)
    4     4          -0.8044591745         -21.8904470282     SG+        A1 (1)
    5    61          -0.6382302617         -17.3671283473      PI        B2 (3)
    6    39          -0.6382302617         -17.3671283473      PI        B1 (2)
    7     5          -0.5555452437         -15.1171546225     SG+        A1 (1)
  +++++++++++++++++++++++++++++++++++++++++++++++++++++++++++++++++++++++++++++
    8     6           0.0693503575           1.8871191658     SG+        A1 (1)
    9    62           0.0700098361           1.9050644931      PI        B2 (3)
   10    40           0.0700098361           1.9050644931      PI        B1 (2)
   11     7           0.0877478733           2.3877410220     SG+        A1 (1)
   12    41           0.1524638544           4.1487523964      PI        B1 (2)
   13    63           0.1524638544           4.1487523964      PI        B2 (3)
   14     8           0.1852720425           5.0415085815     SG+        A1 (1)
   15    64           0.1981449776           5.3917989536      PI        B2 (3)
   16    42           0.1981449776           5.3917989536      PI        B1 (2)
   17     9           0.2688796499           7.3165872430     SG+        A1 (1)
   18    83           0.2961054844           8.0574398625      DE        A2 (4)
   19    10           0.2961054844           8.0574398625      DE        A1 (1)
   20    11           0.3924118406          10.6780690446     SG+        A1 (1)
   21    43           0.4137873513          11.2597262628      PI        B1 (2)
   22    65           0.4137873513          11.2597262628      PI        B2 (3)
   23    12           0.5001983606          13.6110893671     SG+        A1 (1)
   24    66           0.5079672848          13.8224925415      PI        B2 (3)
   25    44           0.5079672848          13.8224925415      PI        B1 (2)
   26    13           0.6701205551          18.2349073496     SG+        A1 (1)
   27    84           0.7248386346          19.7238619888      DE        A2 (4)
   28    14           0.7248386346          19.7238619888      DE        A1 (1)
   29    15           0.7872570869          21.4223544267     SG+        A1 (1)
   30    67           0.8416439342          22.9022957795      PI        B2 (3)
   31    45           0.8416439342          22.9022957795      PI        B1 (2)
   32    16           1.0059501408          27.3732949626     SG+        A1 (1)
   33    17           1.0473845470          28.5007824764      DE        A1 (1)
   34    85           1.0473845470          28.5007824764      DE        A2 (4)
   35    46           1.0722216087          29.1766332832      PH        B1 (2)
   36    68           1.0722216087          29.1766332832      PH        B2 (3)
   37    47           1.0874918273          29.5921570563      PI        B1 (2)
   38    69           1.0874918273          29.5921570563      PI        B2 (3)
   39    70           1.2200613117          33.1995561252      PI        B2 (3)
   40    48           1.2200613117          33.1995561252      PI        B1 (2)
   41    18           1.2519838437          34.0682123828     SG+        A1 (1)
   42    86           1.2754418008          34.7065358449      DE        A2 (4)
   43    19           1.2754418008          34.7065358449      DE        A1 (1)
   44    20           1.3814526339          37.5912372696     SG+        A1 (1)
   45    71           1.4882031092          40.4960653807      PI        B2 (3)
   46    49           1.4882031092          40.4960653807      PI        B1 (2)
   47    21           1.5326583675          41.7057544591     SG+        A1 (1)
   48    50           2.1425131043          58.3007455202      PH        B1 (2)
   49    72           2.1425131043          58.3007455202      PH        B2 (3)
   50    87           2.1786411054          59.2838384112      DE        A2 (4)
   51    22           2.1786411054          59.2838384112      DE        A1 (1)
   52    73           2.3221731944          63.1895451135      PI        B2 (3)
   53    51           2.3221731944          63.1895451135      PI        B1 (2)
   54    23           2.3582357883          64.1708581829     SG+        A1 (1)
   55    24           2.4350775791          66.2618296147     SG+        A1 (1)
   56    74           2.5691389634          69.9098253406      PI        B2 (3)
   57    52           2.5691389634          69.9098253406      PI        B1 (2)
   58    25           2.5804508197          70.2176365984      DE        A1 (1)
   59    88           2.5804508197          70.2176365984      DE        A2 (4)
   60    26           2.6735074363          72.7498358712     SG+        A1 (1)
   61    75           2.9683229099          80.7721727550      PI        B2 (3)
   62    53           2.9683229099          80.7721727550      PI        B1 (2)
   63    27           3.3941551012          92.3596557768      DE        A1 (1)
   64    89           3.3941551012          92.3596557768      DE        A2 (4)
   65    76           3.4193381465          93.0449212777      PH        B2 (3)
   66    54           3.4193381465          93.0449212777      PH        B1 (2)
   67    28           3.4796987815          94.6874176609     SG+        A1 (1)
   68    77           3.6218824925          98.5564331329      PI        B2 (3)
   69    55           3.6218824925          98.5564331329      PI        B1 (2)
   70    90           3.7397976084         101.7650665607      DE        A2 (4)
   71    29           3.7397976084         101.7650665607      DE        A1 (1)
   72    78           3.9831489504         108.3869932287      PI        B2 (3)
   73    56           3.9831489504         108.3869932287      PI        B1 (2)
   74    30           4.0191699085         109.3671733312     SG+        A1 (1)
   75    31           4.3759262505         119.0750069326     SG+        A1 (1)
   76    79           5.2187033222         142.0081369525      PI        B2 (3)
   77    57           5.2187033222         142.0081369525      PI        B1 (2)
   78    32           5.3267992034         144.9495754193     SG+        A1 (1)
   79    80           6.4667079657         175.9680697905      PH        B2 (3)
   80    58           6.4667079657         175.9680697905      PH        B1 (2)
   81    33           6.7459532682         183.5667207795      DE        A1 (1)
   82    91           6.7459532682         183.5667207795      DE        A2 (4)
   83    92           7.0264218248         191.1986582054      DE        A2 (4)
   84    34           7.0264218248         191.1986582054      DE        A1 (1)
   85    81           7.0965916057         193.1080750151      PI        B2 (3)
   86    59           7.0965916057         193.1080750151      PI        B1 (2)
   87    35           7.2011917713         195.9543902269     SG+        A1 (1)
   88    82           7.4289056022         202.1507985843      PI        B2 (3)
   89    60           7.4289056022         202.1507985843      PI        B1 (2)
   90    36           7.6033547041         206.8977999799     SG+        A1 (1)
   91    37          12.5019092350         340.1942454266     SG+        A1 (1)
   92    38          15.1652338122         412.6669916140     SG+        A1 (1)


  VSCF finished.

 @CHECKOUT-I, Total execution time (CPU/WALL):        5.87/       0.75 seconds.
--executable xvscf finished with status     0 in        1.29 seconds (walltime).
 --invoking executable--
/home/CEISAM/blondel-a/soft/cfour2.1/cfour2.1-serial-mkl/bin/xvtran
 @GETMEM-I,  Allocated  238418 MB of main memory.
  Full RHF integral transformation
  The following   2 MOs will be dropped:
    1  2
  There are  90 active molecular orbitals.
  Transformation of IIII integrals :
  1 pass through the AO integral file was required.
      195611 AO integrals were read.
      265389 MO integrals were written to HF2.
  Transformation of IIJJ integrals :
  1 pass through the AO integral file was required.
      399465 AO integrals were read.
      457130 MO integrals were written to HF2.
  Transformation of IJIJ integrals :
  1 pass through the AO integral file was required.
      731801 AO integrals were read.
      817851 MO integrals were written to HF2.
  Transformation of IJKL integrals :
  1 pass through the AO integral file was required.
      472704 AO integrals were read.
      501532 MO integrals were written to HF2.
  Summary of active molecular orbitals: 
------------------------------------------------------------------------
 
  Index      Eigenvalue    Symmetry    Index      Eigenvalue    Symmetry
------------------------------------------------------------------------
     1        -1.5194102        1        46         1.0874918        2
     2        -0.8044592        1        47         1.2200613        2
     3        -0.5555452        1        48         1.4882031        2
     4        -0.6382303        2        49         2.1425131        2
     5        -0.6382303        3        50         2.3221732        2
     6         0.0693504        1        51         2.5691390        2
     7         0.0877479        1        52         2.9683229        2
     8         0.1852720        1        53         3.4193381        2
     9         0.2688796        1        54         3.6218825        2
    10         0.2961055        1        55         3.9831490        2
    11         0.3924118        1        56         5.2187033        2
    12         0.5001984        1        57         6.4667080        2
    13         0.6701206        1        58         7.0965916        2
    14         0.7248386        1        59         7.4289056        2
    15         0.7872571        1        60         0.0700098        3
    16         1.0059501        1        61         0.1524639        3
    17         1.0473845        1        62         0.1981450        3
    18         1.2519838        1        63         0.4137874        3
    19         1.2754418        1        64         0.5079673        3
    20         1.3814526        1        65         0.8416439        3
    21         1.5326584        1        66         1.0722216        3
    22         2.1786411        1        67         1.0874918        3
    23         2.3582358        1        68         1.2200613        3
    24         2.4350776        1        69         1.4882031        3
    25         2.5804508        1        70         2.1425131        3
    26         2.6735074        1        71         2.3221732        3
    27         3.3941551        1        72         2.5691390        3
    28         3.4796988        1        73         2.9683229        3
    29         3.7397976        1        74         3.4193381        3
    30         4.0191699        1        75         3.6218825        3
    31         4.3759263        1        76         3.9831490        3
    32         5.3267992        1        77         5.2187033        3
    33         6.7459533        1        78         6.4667080        3
    34         7.0264218        1        79         7.0965916        3
    35         7.2011918        1        80         7.4289056        3
    36         7.6033547        1        81         0.2961055        4
    37        12.5019092        1        82         0.7248386        4
    38        15.1652338        1        83         1.0473845        4
    39         0.0700098        2        84         1.2754418        4
    40         0.1524639        2        85         2.1786411        4
    41         0.1981450        2        86         2.5804508        4
    42         0.4137874        2        87         3.3941551        4
    43         0.5079673        2        88         3.7397976        4
    44         0.8416439        2        89         6.7459533        4
    45         1.0722216        2        90         7.0264218        4
------------------------------------------------------------------------
  -1.51941023435561      -0.804459174547075      -0.555545243706150     
 -0.638230261653821      -0.638230261653838       6.935035746066139E-002
  8.774787326659672E-002  0.185272042488835       0.268879649940845     
  0.296105484388329       0.392411840576842       0.500198360628102     
  0.670120555120803       0.724838634584042       0.787257086924943     
   1.00595014080141        1.04738454702920        1.25198384374644     
   1.27544180076306        1.38145263388389        1.53265836749295     
   2.17864110544251        2.35823578829345        2.43507757913929     
   2.58045081965362        2.67350743627397        3.39415510116239     
   3.47969878153775        3.73979760840431        4.01916990854607     
   4.37592625050592        5.32679920342758        6.74595326820045     
   7.02642182482440        7.20119177134108        7.60335470411670     
   12.5019092350373        15.1652338121839       7.000983614280082E-002
  0.152463854387605       0.198144977576029       0.413787351318869     
  0.507967284806439       0.841643934189593        1.07222160866691     
   1.08749182727300        1.22006131173796        1.48820310916962     
   2.14251310428563        2.32217319437964        2.56913896338599     
   2.96832290985286        3.41933814646570        3.62188249248961     
   3.98314895040366        5.21870332224594        6.46670796570031     
   7.09659160566846        7.42890560221548       7.000983614278788E-002
  0.152463854387607       0.198144977576001       0.413787351318913     
  0.507967284806432       0.841643934189576        1.07222160866692     
   1.08749182727307        1.22006131173794        1.48820310916961     
   2.14251310428563        2.32217319437954        2.56913896338591     
   2.96832290985205        3.41933814646568        3.62188249248959     
   3.98314895040351        5.21870332224555        6.46670796570028     
   7.09659160566842        7.42890560221484       0.296105484388318     
  0.724838634584027        1.04738454702920        1.27544180076305     
   2.17864110544251        2.58045081965365        3.39415510116240     
   3.73979760840428        6.74595326820050        7.02642182482436     
 @CHECKOUT-I, Total execution time (CPU/WALL):        9.33/       0.65 seconds.
--executable xvtran finished with status     0 in        2.16 seconds (walltime).
 --invoking executable--
/home/CEISAM/blondel-a/soft/cfour2.1/cfour2.1-serial-mkl/bin/xintprc
 @GETMEM-I,  Allocated  238418 MB of main memory.
  @GMOIAA-I, Processing MO integrals for spin case AA.
  @GMOIAA-I, Generation of integral list completed.
                      TYPE                NUMBER
                      ----               --------
                      PPPP               1618554
                      PPPH                383448
                      PPHH                 23402
                      PHPH                 14626
                      PHHH                  1823
                      HHHH                    49

                     TOTAL               2041902

  @FORMT2-I, Second-order MP correlation energies:
            ------------------------------------------------
            E(SCF)                  =   -112.780737699047 a.u.
            E2(AA)                  =     -0.045677190832 a.u.
            E2(AB)                  =     -0.270257818426 a.u.
            E2(TOT)                 =     -0.361612200091 a.u.
            Total MP2 energy        =   -113.142349899138 a.u.
            ------------------------------------------------
   Largest T2 amplitudes for spin case AB:
       _       _                 _       _                 _       _
   i   j   a   b             i   j   a   b             i   j   a   b
-----------------------------------------------------------------------------
[  4   4  40  40]-0.03906 [  5   5  61  61]-0.03906 [  5   4  61  40]-0.03137
[  4   5  40  61]-0.03137 [  3   3  61  61]-0.02991 [  3   3  40  40]-0.02991
[  4   4  39  40]-0.02006 [  4   4  40  39]-0.02006 [  5   5  61  60]-0.02006
[  5   5  60  61]-0.02006 [  3   3  15  15]-0.01992 [  5   5  62  61]-0.01918
[  5   5  61  62]-0.01918 [  4   4  41  40]-0.01918 [  4   4  40  41]-0.01918
-----------------------------------------------------------------------------
   Norm of T2AB vector (    47537 symmetry allowed elements):  0.2791880945.
-----------------------------------------------------------------------------
 @CHECKOUT-I, Total execution time (CPU/WALL):        4.03/       0.62 seconds.
--executable xintprc finished with status     0 in        1.18 seconds (walltime).
  calling xncc 
 --invoking executable--
/home/CEISAM/blondel-a/soft/cfour2.1/cfour2.1-serial-mkl/bin/xncc
 @GETMEM-I,  Allocated       7 MB of main memory.

Running with 20 threads/proc

Following the lowest-energy eigenvector.
Using discrete restarting.
Using an orthogonal subspace.
Orthogonalizing against previous roots.
Using Modified Gram-Schmidt orthogonalization.

Using DIIS to accelerate the convergence of T1 and T2
Using immediate high-order contributions
Performing 3 CCSD sub-iterations
Damping factor for T3: 0.000000
Damping factor for T4: 0.000000

Transposes are coarse-threaded

Memory limit:                232.831 GiB
Minimum memory requirement:   30.343 MiB
Compromise memory amount:      2.387 GiB
Optimal memory requirement:    2.619 GiB

List              Location   Size        Cached Hunks Est. Disk I/O
----------------- ---------- ----------- ------ ----- -------------

           HR_DAV      470:1   12.004 MiB    Yes     -     3.357 GiB
                R        471    2.436 MiB    Yes     -   219.214 MiB
            R_DAV      470:0   12.004 MiB    Yes     -     7.219 GiB
           T_DIIS       70:0    1.819 MiB    Yes     -    32.738 MiB
           Z_DIIS       70:1    1.819 MiB    Yes     -    54.563 MiB
          <AI|bj>         18  371.383 KiB    Yes     -    59.150 MiB
          <Ab|Cd>        233  100.632 MiB    Yes     -   358.306 GiB
          <Ab|Ci>         30    5.996 MiB    Yes     -    17.771 GiB
          <Ab|Ij>         16  371.383 KiB    Yes     -     1.580 GiB
          <Ai|Bj>         25  371.383 KiB    Yes     -    50.050 MiB
          <Aj|bI>         21  371.383 KiB     No     -         0   B
          <Ij|Ka>         10   23.180 KiB    Yes     -    65.804 MiB
          <Ij|Kl>         13    1.539 KiB    Yes     -    93.883 KiB
           DD(AI)      448:8    1.102 KiB    Yes     -    93.781 KiB
        DD(Ab,Ij)        450  371.383 KiB    Yes     -    37.480 MiB
            F(EA)       92:0   16.180 KiB    Yes     -    19.735 MiB
            F(EM)       93:0    1.102 KiB    Yes     -   963.867 KiB
            F(MI)       91:0       88   B    Yes     -   133.117 KiB
           HR(AI)      490:2    1.102 KiB    Yes     -     6.686 MiB
        HR(Ab,Ij)        463  371.383 KiB    Yes     -     4.093 GiB
            Q(AI)      190:2    1.102 KiB    Yes     -   198.281 KiB
         Q(Ab,Ij)         50  371.383 KiB    Yes     -   195.846 MiB
            R(AI)      490:0    1.102 KiB    Yes     -    18.681 MiB
         R(Ab,Ij)        446  371.383 KiB    Yes     -     8.131 GiB
            T(AI)       90:0    1.102 KiB    Yes     -     2.532 MiB
         T(Ab,Ij)         46  371.383 KiB    Yes     -     1.003 GiB
         W(Mn,Ij)         53    1.539 KiB    Yes     -     1.604 MiB
        W~(Ab,Ej)        130    5.996 MiB    Yes     -    13.407 GiB
        W~(EM,bj)         56  371.383 KiB    Yes     -   655.789 MiB
        W~(Em,Bj)         58  371.383 KiB    Yes     -   819.291 MiB
        W~(Ij,Mb)        110   23.180 KiB    Yes     -    23.519 MiB
       W~~(Ab,Ej)        169    5.996 MiB    Yes     -     1.323 GiB
       W~~(EM,bj)         76  371.383 KiB    Yes     -    46.423 MiB
       W~~(Em,Bj)         78  371.383 KiB    Yes     -    46.423 MiB
       W~~(Ij,Mb)        165   23.180 KiB    Yes     -     5.116 MiB
         X(Ab,Ef)        433  100.632 MiB    Yes     -   255.623 GiB
         X(Ab,Ej)        430    5.996 MiB    Yes     -    19.047 GiB
         X(Ab,Ij)        416  371.383 KiB     No     -         0   B
            X(EA)      492:0   16.180 KiB    Yes     -    16.250 MiB
            X(EM)      493:0    1.102 KiB    Yes     -   547.734 KiB
         X(EM,bj)        418  371.383 KiB    Yes     -   400.912 MiB
         X(Ef,Am)        469    5.996 MiB     No     -         0   B
         X(Em,Bj)        425  371.383 KiB    Yes     -   546.699 MiB
         X(Ij,Mb)        410   23.180 KiB    Yes     -    54.088 MiB
            X(MI)      491:0       88   B    Yes     -    74.648 KiB
         X(Mn,Ie)        465   23.180 KiB     No     -         0   B
         X(Mn,Ij)        413    1.539 KiB    Yes     -     1.169 MiB
            Z(AI)       90:2    1.102 KiB    Yes     -   512.227 KiB
         Z(Ab,Ij)         63  371.383 KiB    Yes     -   168.646 MiB
      HR(abc,ijk)    HR3FILE   35.605 MiB    Yes     1   162.453 GiB
            HR3_1      HR3_1   35.605 MiB    Yes     1   115.413 GiB
           HR3_10     HR3_10   35.605 MiB    Yes     1    25.058 GiB
           HR3_11     HR3_11   35.605 MiB    Yes     1     4.640 GiB
           HR3_12     HR3_12   35.605 MiB    Yes     1     4.640 GiB
           HR3_13     HR3_13   35.605 MiB    Yes     1     4.640 GiB
           HR3_14     HR3_14   35.605 MiB    Yes     1     4.640 GiB
           HR3_15     HR3_15   35.605 MiB    Yes     1     4.640 GiB
           HR3_16     HR3_16   35.605 MiB    Yes     1     4.640 GiB
           HR3_17     HR3_17   35.605 MiB    Yes     1     4.640 GiB
           HR3_18     HR3_18   35.605 MiB    Yes     1     4.640 GiB
           HR3_19     HR3_19   35.605 MiB    Yes     1     4.640 GiB
            HR3_2      HR3_2   35.605 MiB    Yes     1    18.044 GiB
           HR3_20     HR3_20   35.605 MiB    Yes     1     4.640 GiB
           HR3_21     HR3_21   35.605 MiB    Yes     1     4.221 GiB
           HR3_22     HR3_22   35.605 MiB    Yes     1     4.221 GiB
           HR3_23     HR3_23   35.605 MiB    Yes     1     4.221 GiB
           HR3_24     HR3_24   35.605 MiB    Yes     1     4.221 GiB
           HR3_25     HR3_25   35.605 MiB    Yes     1     4.221 GiB
           HR3_26     HR3_26   35.605 MiB    Yes     1     4.221 GiB
           HR3_27     HR3_27   35.605 MiB    Yes     1     4.221 GiB
           HR3_28     HR3_28   35.605 MiB    Yes     1     4.221 GiB
           HR3_29     HR3_29   35.605 MiB    Yes     1     4.221 GiB
            HR3_3      HR3_3   35.605 MiB    Yes     1    18.147 GiB
           HR3_30     HR3_30   35.605 MiB    Yes     1     4.221 GiB
           HR3_31     HR3_31   35.605 MiB     No     1         0   B
           HR3_32     HR3_32   35.605 MiB     No     1         0   B
           HR3_33     HR3_33   35.605 MiB     No     1         0   B
            HR3_4      HR3_4   35.605 MiB    Yes     1    18.249 GiB
            HR3_5      HR3_5   35.605 MiB    Yes     1    18.352 GiB
            HR3_6      HR3_6   35.605 MiB    Yes     1    18.455 GiB
            HR3_7      HR3_7   35.605 MiB    Yes     1    18.558 GiB
            HR3_8      HR3_8   35.605 MiB    Yes     1    18.661 GiB
            HR3_9      HR3_9   35.605 MiB    Yes     1    18.764 GiB
       R(abc,ijk)     R3FILE   35.605 MiB    Yes     1   523.461 GiB
             R3_1       R3_1   35.605 MiB    Yes     1   211.334 GiB
            R3_10      R3_10   35.605 MiB    Yes     1    45.167 GiB
            R3_11      R3_11   35.605 MiB    Yes     1    15.470 GiB
            R3_12      R3_12   35.605 MiB    Yes     1    15.470 GiB
            R3_13      R3_13   35.605 MiB    Yes     1    15.470 GiB
            R3_14      R3_14   35.605 MiB    Yes     1    15.470 GiB
            R3_15      R3_15   35.605 MiB    Yes     1    15.470 GiB
            R3_16      R3_16   35.605 MiB    Yes     1    15.470 GiB
            R3_17      R3_17   35.605 MiB    Yes     1    15.470 GiB
            R3_18      R3_18   35.605 MiB    Yes     1    15.470 GiB
            R3_19      R3_19   35.605 MiB    Yes     1    15.470 GiB
           R3_1_1     R3_1_1   35.605 MiB    Yes     1     7.823 GiB
           R3_1_2     R3_1_2   35.605 MiB     No     1         0   B
           R3_1_3     R3_1_3   35.605 MiB     No     1         0   B
             R3_2       R3_2   35.605 MiB    Yes     1    38.153 GiB
            R3_20      R3_20   35.605 MiB    Yes     1     8.250 GiB
            R3_21      R3_21   35.605 MiB    Yes     1     4.221 GiB
            R3_22      R3_22   35.605 MiB    Yes     1     4.221 GiB
            R3_23      R3_23   35.605 MiB    Yes     1     4.221 GiB
            R3_24      R3_24   35.605 MiB    Yes     1     4.221 GiB
            R3_25      R3_25   35.605 MiB    Yes     1     4.221 GiB
            R3_26      R3_26   35.605 MiB    Yes     1     4.221 GiB
            R3_27      R3_27   35.605 MiB    Yes     1     4.221 GiB
            R3_28      R3_28   35.605 MiB    Yes     1     4.221 GiB
            R3_29      R3_29   35.605 MiB    Yes     1     4.221 GiB
           R3_2_1     R3_2_1   35.141 MiB    Yes     1     5.148 GiB
           R3_2_2     R3_2_2   35.141 MiB     No     1         0   B
             R3_3       R3_3   35.605 MiB    Yes     1    38.256 GiB
            R3_30      R3_30   35.605 MiB    Yes     1     4.221 GiB
            R3_31      R3_31   35.605 MiB     No     1         0   B
            R3_32      R3_32   35.605 MiB     No     1         0   B
            R3_33      R3_33   35.605 MiB     No     1         0   B
             R3_4       R3_4   35.605 MiB    Yes     1    38.359 GiB
           R3_4_1     R3_4_1   34.676 MiB    Yes     1     5.080 GiB
           R3_4_2     R3_4_2   34.676 MiB     No     1         0   B
             R3_5       R3_5   35.605 MiB    Yes     1    38.462 GiB
             R3_6       R3_6   35.605 MiB    Yes     1    38.565 GiB
             R3_7       R3_7   35.605 MiB    Yes     1    38.668 GiB
             R3_8       R3_8   35.605 MiB    Yes     1    38.771 GiB
             R3_9       R3_9   35.605 MiB    Yes     1    38.874 GiB
       T(abc,ijk)     T3FILE   35.605 MiB    Yes     1     5.250 GiB
       Z(abc,ijk)     Z3FILE   35.605 MiB    Yes     1     1.565 GiB

Simulation and memory analysis took 2.970 seconds

MP2 correlation energy:  -0.361612200091036

Non-iterative calculation of MP2 took 0.071 cpu seconds and 0.004 walltime seconds at 0.626 Gflops/sec

Total MP2 energy: -113.142349899137628

Beginning iterative solution of CCSDT equations:

It.  Correlation Energy T1 Residual T2 Residual T3 Residual CPU Time (s) Walltime (s)
-------------------------------------------------------------------------------------
  1  -0.381689435472722 7.32897e-03 7.22000e-03 3.33644e-03       13.790        0.693
  2  -0.380987665673734 3.32093e-04 8.69943e-04 5.17096e-04       28.285        1.418
  3  -0.381441067459113 1.79662e-04 2.69217e-04 2.31672e-04       27.884        1.398
  4  -0.381508359644468 1.43997e-05 6.62040e-05 1.11848e-04       27.602        1.384
  5  -0.381544454178300 1.21448e-05 2.57140e-05 5.25150e-05       27.261        1.366

   A    I                     A    I                     A    I                  
-------------------------- -------------------------- -------------------------- 
  13    5  0.0273409201590   10    6  0.0110314070117    8    7  0.0088948409186 
  12    6  0.0273409201590   17    7 -0.0106064899591   15    5  0.0065365809052 
  25    6  0.0133193808589   29    7 -0.0093760547094   16    6  0.0065365809052 
  24    5  0.0133193808589   37    6  0.0088999811229   29    4  0.0055715286754 
   9    5  0.0110314070117   38    5  0.0088999811229   32    7 -0.0055700484566 

   A    B    I    J                     A    B    I    J                  
------------------------------------ ------------------------------------ 
  13   13    7    7 -0.0496910980794   13    9    5    5 -0.0255680069212 
  12   12    7    7 -0.0496910980794    9   13    5    5 -0.0255680069212 
  12   12    6    6 -0.0495528872152   15   13    5    5 -0.0243823585690 
  13   13    5    5 -0.0495528872152   13   15    5    5 -0.0243823585690 
  13   12    5    6 -0.0353655145565   16   12    6    6 -0.0243823585690 
  12   13    6    5 -0.0353655145565   12   16    6    6 -0.0243823585690 
  10   12    6    6 -0.0255680069212   29   29    7    7 -0.0242657130544 
  12   10    6    6 -0.0255680069212 

It.  Correlation Energy T1 Residual T2 Residual T3 Residual CPU Time (s) Walltime (s)
-------------------------------------------------------------------------------------
  6  -0.381553652386459 1.58658e-06 1.01700e-05 2.51949e-05       26.482        1.327
  7  -0.381558098316886 9.15458e-07 4.27492e-06 1.20054e-05       26.834        1.345
  8  -0.381559739294681 4.41704e-07 1.84472e-06 5.76585e-06       26.786        1.342
  9  -0.381560493266987 2.08809e-07 8.30528e-07 2.76365e-06       26.271        1.317
 10  -0.381560809242884 1.00425e-07 3.79111e-07 1.32990e-06       26.180        1.312

   A    I                     A    I                     A    I                  
-------------------------- -------------------------- -------------------------- 
  13    5  0.0273446956253   10    6  0.0110346943838    8    7  0.0088965382135 
  12    6  0.0273446956253   17    7 -0.0106078357240   15    5  0.0065378812183 
  25    6  0.0133191103957   29    7 -0.0093773360949   16    6  0.0065378812183 
  24    5  0.0133191103957   37    6  0.0089003267084   29    4  0.0055711353834 
   9    5  0.0110346943838   38    5  0.0089003267084   32    7 -0.0055711181384 

   A    B    I    J                     A    B    I    J                  
------------------------------------ ------------------------------------ 
  13   13    7    7 -0.0496988883537   13    9    5    5 -0.0255667416471 
  12   12    7    7 -0.0496988883537    9   13    5    5 -0.0255667416471 
  12   12    6    6 -0.0495500994529   15   13    5    5 -0.0243812802024 
  13   13    5    5 -0.0495500994529   13   15    5    5 -0.0243812802024 
  13   12    5    6 -0.0353679089436   16   12    6    6 -0.0243812802024 
  12   13    6    5 -0.0353679089436   12   16    6    6 -0.0243812802024 
  10   12    6    6 -0.0255667416471   29   29    7    7 -0.0242648401348 
  12   10    6    6 -0.0255667416471 

It.  Correlation Energy T1 Residual T2 Residual T3 Residual CPU Time (s) Walltime (s)
-------------------------------------------------------------------------------------
 11  -0.381560954486640 4.93787e-08 1.75326e-07 6.39795e-07       26.238        1.315
 12  -0.381561019294655 2.52756e-08 8.09857e-08 3.08397e-07       26.000        1.303

CCSDT iterations converged in 12 cycles and 15.523 seconds (1.294 s/it.) at 41.402 Gflops/sec

Total CCSDT energy: -113.162298718341248

             _
Formation of H took 0.201 seconds at 8.969 Gflops/sec

Searching for 3 roots in irrep 1

EOMEE-CCSD guess vector:

   A    I                  
-------------------------- 
   8    7  1.0000000000000 

Beginning iterative solution of EOMEE-CCSDT equations:

It.  Correlation Energy R1 Residual R2 Residual R3 Residual CPU Time (s) Walltime (s)
-------------------------------------------------------------------------------------
  1   0.530757329829992 2.21818e-02 6.02907e-02 3.82154e-03       44.797        2.246
  2   0.462872509685930 6.42882e-02 4.01751e-02 2.12793e-03       47.178        2.365
  3   0.417301989985901 1.42364e-02 1.21117e-02 4.37653e-03       50.199        2.516
  4   0.411028332008214 1.29167e-02 8.27421e-03 2.38075e-03       53.346        2.674
  5   0.406349907864493 3.28248e-03 8.82122e-03 1.05393e-03       55.156        2.764
  6   0.404087143541636 4.26929e-03 2.98350e-03 6.90995e-04       60.013        3.008
  7   0.404549911865840 3.22864e-03 1.36978e-03 4.07477e-04       59.965        3.006
  8   0.404454775607403 3.65385e-03 6.23086e-04 3.26047e-04       60.784        3.046
  9   0.403842720739245 2.32665e-03 1.13259e-03 2.44826e-04       64.013        3.208
Locking on root: 0.403856524605926
 10   0.403856524605926 2.93374e-03 9.50344e-04 1.56666e-04       69.589        3.488
 11   0.404095254600790 2.19878e-03 6.04016e-04 1.46070e-04       74.730        3.745
 12   0.403771379006387 1.11752e-03 4.21431e-04 8.52742e-05       72.500        3.634
 13   0.403692591066351 6.96570e-04 2.71820e-04 7.87096e-05       74.191        3.718
 14   0.403788667239901 1.94820e-04 2.51245e-04 7.05895e-05       78.196        3.919
 15   0.403766249270852 1.43770e-04 1.81875e-04 4.90490e-05       78.824        3.951
 16   0.403740902215716 6.08470e-05 1.07936e-04 2.74628e-05       80.949        4.057
 17   0.403750079175507 3.09564e-05 5.63439e-05 1.47811e-05       88.436        4.432
 18   0.403754675339078 1.73973e-05 2.78589e-05 7.57931e-06       90.622        4.542
 19   0.403752794695148 9.82233e-06 1.09149e-05 2.85692e-06       88.921        4.457
Compacting subspace
 20   0.403751491529009 3.59593e-06 3.72187e-06 1.03143e-06      319.654       16.021

EOMEE-CCSDT iterations converged in 20 cycles and 80.798 seconds (4.040 s/it.) at 28.421 Gflops/sec

EOMEE-CCSDT excitation energy:   0.403751491529007 ( 10.986636634317675 eV)
Total EOMEE-CCSDT energy:      -112.758547226812240

Converged root:

   A    I                     A    I                     A    I                  
-------------------------- -------------------------- -------------------------- 
   8    7  0.6039153734005   13    5  0.0703681336280   24    5  0.0245434057038 
  11    7  0.1728492424233   10    6  0.0361957277506   20    7 -0.0213880154774 
  17    7 -0.1582712058204    9    5  0.0361957277505   29    7 -0.0132560247643 
  14    7 -0.0986671459230   26    7  0.0256393590762   38    5  0.0117042112964 
  12    6  0.0703681336281   25    6  0.0245434057038   37    6  0.0117042112964 

   A    B    I    J                     A    B    I    J                  
------------------------------------ ------------------------------------ 
   8    8    7    7 -0.0652350498890    8   25    7    6  0.0422217314489 
  12    8    6    7  0.0641242255459   24    8    5    7  0.0422217314489 
   8   12    7    6  0.0641242255459    8   24    7    5  0.0422217314489 
  13    8    5    7  0.0641242255459   11    8    7    7 -0.0406289650932 
   8   13    7    5  0.0641242255459    8   11    7    7 -0.0406289650932 
  29    8    7    7  0.0460525285883   17    8    7    7  0.0389240855510 
   8   29    7    7  0.0460525285883    8   17    7    7  0.0389240855510 
  25    8    6    7  0.0422217314489 

EOMEE-CCSD guess vector:

   A    I                  
-------------------------- 
  11    7  1.0000000000000 

Beginning iterative solution of EOMEE-CCSDT equations:

It.  Correlation Energy R1 Residual R2 Residual R3 Residual CPU Time (s) Walltime (s)
-------------------------------------------------------------------------------------
  1   0.531451408079808 8.58077e-02 7.55057e-02 2.59443e-03       47.272        2.369
  2   0.440904934589684 4.07767e-02 9.15984e-03 6.60173e-03       49.910        2.501
  3   0.429749336942897 1.32389e-02 3.49158e-03 1.39547e-03       52.408        2.627
  4   0.426858384986712 5.22802e-03 2.20644e-03 1.44531e-03       54.190        2.716
  5   0.424581131622065 2.49232e-03 2.60599e-03 6.32205e-04       54.966        2.755
  6   0.423946524304633 2.33677e-03 1.83874e-03 5.47637e-04       58.582        2.936
  7   0.424223128629351 9.53310e-04 1.54675e-03 4.23177e-04       58.851        2.950
  8   0.424180512073243 6.04583e-04 9.80920e-04 2.46361e-04       61.977        3.106
  9   0.424009690064186 5.26509e-04 4.11573e-04 1.17223e-04       63.447        3.180
 10   0.424088261274460 2.85381e-04 2.05571e-04 5.54071e-05       68.298        3.423
Locking on root: 0.424114093638827
 11   0.424114093638827 1.81066e-04 1.15743e-04 3.50704e-05       70.202        3.519
 12   0.424064233808200 9.20523e-05 5.41380e-05 1.83346e-05       70.918        3.554
 13   0.424059578780841 5.97481e-05 4.50800e-05 7.81673e-06       72.959        3.657
 14   0.424072226119302 1.92379e-05 9.35233e-06 4.09269e-06       76.033        3.811
 15   0.424070183558492 1.57225e-05 5.93786e-06 2.23922e-06       77.699        3.894
 16   0.424068969348617 8.38537e-06 2.41287e-06 1.36640e-06       79.128        3.966

EOMEE-CCSDT iterations converged in 16 cycles and 50.964 seconds (3.185 s/it.) at 35.583 Gflops/sec

EOMEE-CCSDT excitation energy:   0.424068969348610 ( 11.539503312987884 eV)
Total EOMEE-CCSDT energy:      -112.738229748992637

Converged root:

   A    I                     A    I                     A    I                  
-------------------------- -------------------------- -------------------------- 
  11    7  0.6301673039759   20    7 -0.0506400525516   25    6  0.0197872084268 
   8    7 -0.1641815577492   13    5  0.0410028032717   20    4  0.0132602936390 
  17    7  0.1148813838393   12    6  0.0410028032714   26    7  0.0132412954422 
  23    7  0.0658491710399    8    4 -0.0229281936292   11    4 -0.0126657080772 
  14    7 -0.0618375771573   24    5  0.0197872084268   16    6 -0.0120495604055 

   A    B    I    J                     A    B    I    J                  
------------------------------------ ------------------------------------ 
  11   11    7    7 -0.0797943388927   11   24    7    5  0.0386402855362 
  13   11    5    7  0.0499312698400   25   11    6    7  0.0386402855362 
  11   13    7    5  0.0499312698400   11   25    7    6  0.0386402855362 
  12   11    6    7  0.0499312698400   23   11    7    7 -0.0383235628897 
  11   12    7    6  0.0499312698400   11   23    7    7 -0.0383235628897 
  29   11    7    7  0.0449077438663   26   11    7    7 -0.0360333864696 
  11   29    7    7  0.0449077438663   11   26    7    7 -0.0360333864696 
  24   11    5    7  0.0386402855362 

EOMEE-CCSD guess vector:

   A    I                  
-------------------------- 
  14    7  1.0000000000000 

Beginning iterative solution of EOMEE-CCSDT equations:

It.  Correlation Energy R1 Residual R2 Residual R3 Residual CPU Time (s) Walltime (s)
-------------------------------------------------------------------------------------
  1   0.633298290337476 1.47522e-01 4.03175e-02 3.87426e-03       48.701        2.441
  2   0.527157297995918 5.40100e-02 1.20417e-02 3.66968e-03       51.155        2.564
  3   0.512420915802799 2.15460e-02 4.20636e-03 1.83491e-03       53.480        2.680
  4   0.509198326070671 7.80459e-03 2.16389e-03 1.31153e-03       54.890        2.751
  5   0.504443248888715 7.60516e-03 2.24432e-03 1.07591e-03       58.785        2.946
  6   0.501937179131008 7.20556e-03 2.46955e-03 1.05616e-03       59.215        2.968
  7   0.500450501598654 7.84090e-03 4.49273e-03 1.03089e-03       62.026        3.109
  8   0.497519365373491 4.83536e-03 3.83039e-03 9.92892e-04       64.300        3.223
  9   0.495677000410302 2.94406e-03 3.09493e-03 7.64586e-04       66.854        3.351
Locking on root: 0.495663637420891
 10   0.495663637420891 2.40790e-03 2.35107e-03 5.91860e-04       69.238        3.470
 11   0.495749265192879 1.82232e-03 1.52272e-03 3.83738e-04       73.597        3.689
 12   0.495418642568894 1.14609e-03 9.14531e-04 2.26249e-04       75.423        3.780
 13   0.495371182675253 6.21526e-04 4.45812e-04 1.06335e-04       77.983        3.909
 14   0.495460074232533 3.17965e-04 1.79864e-04 4.34674e-05       78.013        3.910
 15   0.495440636010368 1.12672e-04 8.91182e-05 2.39613e-05       78.505        3.935
 16   0.495423069111040 9.74497e-05 7.94721e-05 1.43196e-05       82.173        4.118
 17   0.495432122396317 4.97082e-05 5.15797e-05 9.06094e-06       82.720        4.146
 18   0.495435194123972 4.79338e-05 2.40127e-05 5.99381e-06       88.590        4.440
 19   0.495432062361150 2.52164e-05 1.75736e-05 4.48316e-06       92.587        4.640
Compacting subspace
 20   0.495430121752334 3.40115e-03 7.56544e-05 5.94154e-06      425.101       21.306
 21   0.495430189789031 1.92155e-05 1.05596e-05 3.12737e-06       75.388        3.779
 22   0.495432407162643 1.13673e-05 8.43265e-06 2.56145e-06       76.080        3.813
 23   0.495431436679464 6.52923e-06 3.98709e-06 9.33731e-07       80.347        4.028

EOMEE-CCSDT iterations converged in 23 cycles and 98.997 seconds (4.304 s/it.) at 26.860 Gflops/sec

EOMEE-CCSDT excitation energy:   0.495431436679468 ( 13.481374771897817 eV)
Total EOMEE-CCSDT energy:      -112.666867281661780

Converged root:

   A    I                     A    I                     A    I                  
-------------------------- -------------------------- -------------------------- 
  14    7 -0.4182774750448    8    7 -0.1466257346538   26    7  0.0570704072951 
   9    5  0.2272496976054   17    7 -0.1197626796808   17    4  0.0502175810661 
  10    6  0.2272496975884   20    7  0.0992627770805   29    7 -0.0436037449717 
  13    5  0.2095616544115    8    4 -0.0908289370009   15    5  0.0353236042753 
  12    6  0.2095616543895   11    7 -0.0867218555275   16    6  0.0353236042675 

   A    B    I    J                     A    B    I    J                  
------------------------------------ ------------------------------------ 
  13   13    5    5 -0.0552480274327   12   10    6    6 -0.0410822462494 
  12   12    6    6 -0.0552480274284   10   12    6    6 -0.0410822462494 
  13   14    5    7 -0.0452939980605    9    9    5    5 -0.0355272766620 
  14   13    7    5 -0.0452939980605   10   10    6    6 -0.0355272766601 
  12   14    6    7 -0.0452939980603   29   14    7    7 -0.0330578360697 
  14   12    7    6 -0.0452939980603   14   29    7    7 -0.0330578360697 
  13    9    5    5 -0.0410822462519   13   12    5    6 -0.0308392193481 
   9   13    5    5 -0.0410822462519 

Searching for 2 roots in irrep 2

EOMEE-CCSD guess vector:

   A    I                  
-------------------------- 
  10    7  1.0000000000000 

Beginning iterative solution of EOMEE-CCSDT equations:

It.  Correlation Energy R1 Residual R2 Residual R3 Residual CPU Time (s) Walltime (s)
-------------------------------------------------------------------------------------
  1   0.500405102870484 3.03077e-02 5.91596e-02 3.31726e-03       42.755        2.143
  2   0.444110800449326 1.23467e-01 2.46815e-02 1.96657e-03       47.649        2.388
  3   0.372512514055333 4.18228e-02 1.20772e-02 2.68802e-03       52.601        2.636
  4   0.342390972070411 4.51804e-02 9.79305e-03 3.83949e-03       51.035        2.558
  5   0.321987596818624 2.04231e-02 4.68085e-03 2.56869e-03       51.304        2.571
  6   0.313722106168616 4.86545e-03 3.21536e-03 1.02194e-03       56.537        2.834
  7   0.312136313745929 2.49170e-03 1.36480e-03 6.60322e-04       58.610        2.937
  8   0.312370955978501 1.68417e-03 8.12183e-04 2.67209e-04       59.877        3.001
  9   0.312112955990675 5.12015e-04 6.27928e-04 1.87462e-04       61.421        3.078
 10   0.312043665816072 3.72436e-04 3.64876e-04 1.05743e-04       68.679        3.442
 11   0.312089914276537 2.16132e-04 1.30450e-04 4.22899e-05       66.840        3.350
Locking on root: 0.312090716516577
 12   0.312090716516577 1.15678e-04 7.19624e-05 1.61894e-05       65.689        3.292
 13   0.312078676037661 5.35586e-05 3.83376e-05 1.14751e-05       73.647        3.691
 14   0.312085725172504 2.23724e-05 1.74761e-05 8.08692e-06       70.747        3.546
 15   0.312087021472036 9.04869e-06 9.68018e-06 4.17758e-06       75.861        3.802

EOMEE-CCSDT iterations converged in 15 cycles and 45.271 seconds (3.018 s/it.) at 36.331 Gflops/sec

EOMEE-CCSDT excitation energy:   0.312087021472038 (  8.492319595439668 eV)
Total EOMEE-CCSDT energy:      -112.850211696869209

Converged root:

   A    I                     A    I                     A    I                  
-------------------------- -------------------------- -------------------------- 
  12    7  0.4966531827344   21    7  0.0730987852092   21    4  0.0235839940440 
  10    7  0.3896012743824   10    4  0.0391765631614   46    7  0.0223997299011 
  16    7  0.1804048958134   31    7  0.0324340739874   37    7 -0.0191634359474 
  12    4  0.0888764444500   25    4  0.0318654651022   19    6 -0.0165425071144 
  25    7  0.0769370782329   16    4  0.0270717479565   18    5 -0.0165425071144 

   A    B    I    J                     A    B    I    J                  
------------------------------------ ------------------------------------ 
  12   12    6    4 -0.0421083873043   12   13    4    5 -0.0286629462545 
  12   12    4    6 -0.0421083873043   13   12    5    4 -0.0286629462545 
  12   10    6    7  0.0358414030584   12   29    7    7  0.0284725921689 
  10   12    7    6  0.0358414030584   29   12    7    7  0.0284725921689 
  12   12    6    7  0.0348822690376   12   10    6    4 -0.0275533759403 
  12   12    7    6  0.0348822690376   10   12    4    6 -0.0275533759403 
  10   12    6    7  0.0291809025487   10   29    7    7  0.0273491919613 
  12   10    7    6  0.0291809025487 

EOMEE-CCSD guess vector:

   A    I                  
-------------------------- 
  12    7  1.0000000000000 

Beginning iterative solution of EOMEE-CCSDT equations:

It.  Correlation Energy R1 Residual R2 Residual R3 Residual CPU Time (s) Walltime (s)
-------------------------------------------------------------------------------------
  1   0.676058617617421 7.35259e+00 4.30743e-02 4.55458e-03       45.810        2.296
  2   0.530878772707223 5.25375e-02 3.22996e-02 3.31040e-03       48.259        2.419
  3   0.443602752798704 2.86663e-02 6.81100e-03 3.21188e-03       50.191        2.515
  4   0.436764880798872 1.41992e-02 3.30288e-03 1.44251e-03       53.358        2.674
  5   0.433974162634306 4.30397e-03 2.27826e-03 6.79815e-04       55.169        2.765
  6   0.431761040202923 4.04267e-03 1.44362e-03 5.16854e-04       57.207        2.867
  7   0.431573333365998 1.79622e-03 1.14729e-03 2.93891e-04       58.458        2.930
  8   0.431826404692796 2.33775e-03 1.06416e-03 3.12677e-04       60.346        3.024
  9   0.431418355899630 9.09289e-04 1.19476e-03 3.19015e-04       64.334        3.224
 10   0.431228920967751 1.10309e-03 6.79702e-04 1.91217e-04       64.285        3.222
 11   0.431429231948297 5.55028e-04 3.22173e-04 9.61189e-05       66.695        3.343
 12   0.431385769193914 4.32485e-04 1.85886e-04 5.41768e-05       69.398        3.478
 13   0.431277746220037 2.57578e-04 9.73303e-05 3.46117e-05       71.553        3.586
Locking on root: 0.431311442677430
 14   0.431311442677430 1.06228e-04 7.04386e-05 2.29311e-05       76.442        3.831
 15   0.431328385366997 5.70637e-05 3.47446e-05 1.37229e-05       81.983        4.109
 16   0.431317805152219 3.42545e-05 2.33672e-05 6.32075e-06       81.103        4.065
 17   0.431318618087810 2.26449e-05 1.00883e-05 3.46071e-06       82.859        4.153
 18   0.431322031958128 1.65316e-05 4.74543e-06 1.62724e-06       84.019        4.211
 19   0.431320942137525 1.14484e-05 2.21527e-06 1.05940e-06       87.650        4.393
Compacting subspace
 20   0.431320083344050 1.56440e-03 3.13363e-05 3.01645e-06      335.568       16.819
 21   0.431320106765586 6.58814e-06 1.69506e-06 6.78318e-07       68.727        3.445

EOMEE-CCSDT iterations converged in 21 cycles and 83.369 seconds (3.970 s/it.) at 28.311 Gflops/sec

EOMEE-CCSDT excitation energy:   0.431320106765583 ( 11.736816793327199 eV)
Total EOMEE-CCSDT energy:      -112.730978611575665

Converged root:

   A    I                     A    I                     A    I                  
-------------------------- -------------------------- -------------------------- 
  10    7 -0.5142507039791   21    7  0.0432655655485   16    4  0.0140181694540 
  12    7  0.3975296040501   10    4  0.0425366390933   40    7  0.0118944158025 
  25    7  0.1242613223674    8    6 -0.0257426172589   17    6  0.0105516779252 
  12    4  0.0755443848937   25    4  0.0156558341440   10    3  0.0105320968959 
  16    7 -0.0529292221196   31    7  0.0145230032224   21    4  0.0080988195029 

   A    B    I    J                     A    B    I    J                  
------------------------------------ ------------------------------------ 
  13   10    5    7 -0.0569592395060   25   10    6    7 -0.0399112546937 
  10   13    7    5 -0.0569592395060   10   25    7    6 -0.0399112546937 
  12   10    6    7 -0.0529373932086   10   24    7    5 -0.0398312330718 
  10   12    7    6 -0.0529373932086   24   10    5    7 -0.0398312330718 
  10   29    7    7 -0.0423725438960   10   13    5    7 -0.0371669016091 
  29   10    7    7 -0.0423725438960   13   10    7    5 -0.0371669016091 
  10   11    7    7  0.0417384091416   10    8    7    7  0.0362736353925 
  11   10    7    7  0.0417384091416 

Searching for 2 roots in irrep 4

EOMEE-CCSD guess vector:

   A    I                  
-------------------------- 
   9    6  1.0000000000000 

Beginning iterative solution of EOMEE-CCSDT equations:

It.  Correlation Energy R1 Residual R2 Residual R3 Residual CPU Time (s) Walltime (s)
-------------------------------------------------------------------------------------
  1   0.626528430197114 4.24113e-02 4.52603e-02 2.90885e-03       42.722        2.141
  2   0.543118844299247 1.39525e-01 2.49410e-02 3.32782e-03       44.763        2.243
  3   0.460266235435020 5.78839e-02 1.20588e-02 3.37458e-03       46.564        2.334
  4   0.410746685734261 5.26630e-02 6.10953e-03 7.05442e-03       48.653        2.438
  5   0.376540212043567 1.33823e-02 5.94960e-03 2.49653e-03       53.612        2.687
  6   0.368825013882339 5.41640e-03 1.98719e-03 1.27487e-03       55.791        2.796
  7   0.367952696817078 2.58266e-03 1.31166e-03 6.15212e-04       58.144        2.914
  8   0.367611817248291 1.81528e-03 5.81544e-04 2.68562e-04       60.366        3.025
  9   0.367415780661791 1.85547e-03 4.24821e-04 1.38237e-04       63.652        3.190
 10   0.367456381822644 1.89175e-03 5.95051e-04 1.88435e-04       62.734        3.144
 11   0.367326187032130 1.84970e-03 1.11695e-03 3.47487e-04       64.000        3.208
 12   0.366790387872567 1.73739e-03 1.99995e-03 6.47649e-04       66.813        3.349
 13   0.366190622504721 1.51656e-03 2.25269e-03 7.61080e-04       72.287        3.623
 14   0.365639960004399 1.05567e-03 1.87828e-03 3.25002e-04       71.204        3.569
 15   0.365420254140007 6.39736e-04 1.02513e-03 3.29380e-04       72.527        3.635
 16   0.365352780186318 4.07905e-04 4.96216e-04 2.43173e-04       74.905        3.754
 17   0.365290655858610 1.48279e-04 2.28932e-04 1.13845e-04       76.229        3.820
Locking on root: 0.365292452103980
 18   0.365292452103980 7.97332e-05 8.90220e-05 4.55607e-05       83.564        4.188
 19   0.365290112051039 5.58766e-05 3.88578e-05 2.14977e-05       83.031        4.161
Compacting subspace
 20   0.365284862649013 2.76631e-05 1.63639e-05 8.40034e-06      291.138       14.592
 21   0.365285787114040 1.59853e-05 1.15065e-05 4.76862e-06       65.666        3.291
 22   0.365284613599358 6.42788e-06 5.23501e-06 1.83940e-06       69.859        3.501

EOMEE-CCSDT iterations converged in 22 cycles and 81.606 seconds (3.709 s/it.) at 29.351 Gflops/sec

EOMEE-CCSDT excitation energy:   0.365284613599357 (  9.939899670772958 eV)
Total EOMEE-CCSDT energy:      -112.797014104741891

Converged root:

   A    I                     A    I                     A    I                  
-------------------------- -------------------------- -------------------------- 
  12    5 -0.3766416053077   15    6  0.1345729238757   31    5 -0.0308960439059 
  13    6  0.3766091603706   25    5 -0.0774175680405   30    6  0.0308883940336 
  10    5 -0.2384412394997   24    6  0.0774049574979   46    5 -0.0168704152955 
   9    6  0.2384239271016   21    5 -0.0688897969857   45    6  0.0168677153456 
  16    5 -0.1345954282666   22    6  0.0688772972808   37    5  0.0141732000320 

   A    B    I    J                     A    B    I    J                  
------------------------------------ ------------------------------------ 
  13   12    5    5  0.0428077789606   13   10    6    6 -0.0252701473379 
  12   13    5    5  0.0428077789606   10   13    6    6 -0.0252701473379 
  12   12    6    5  0.0428068864190    9   12    5    5  0.0252688769148 
  12   12    5    6  0.0428068864190   12    9    5    5  0.0252688769148 
  13   13    5    6 -0.0428048445243    9   13    5    6 -0.0243967655865 
  13   13    6    5 -0.0428048445243   13    9    6    5 -0.0243967655865 
  13   12    6    6 -0.0428039519828   12   10    5    6  0.0243953450306 
  12   13    6    6 -0.0428039519828 

EOMEE-CCSD guess vector:

   A    I                  
-------------------------- 
  10    5  1.0000000000000 

Beginning iterative solution of EOMEE-CCSDT equations:

It.  Correlation Energy R1 Residual R2 Residual R3 Residual CPU Time (s) Walltime (s)
-------------------------------------------------------------------------------------
  1   0.659256033119769 1.54895e-01 4.23018e-02 3.08970e-03       45.433        2.277
  2   0.501840709693155 7.38371e-02 8.81482e-03 5.29666e-03       47.306        2.371
  3   0.453220671124725 5.81230e-02 8.89577e-03 6.32115e-03       49.361        2.474
  4   0.398024266433225 2.19450e-02 8.64209e-03 2.90650e-03       52.182        2.615
  5   0.374645122939319 8.89094e-03 4.06802e-03 1.77364e-03       56.654        2.840
  6   0.371312416362417 6.49218e-03 2.23752e-03 7.44229e-04       55.647        2.789
  7   0.370645595151673 1.87786e-03 1.14929e-03 4.96129e-04       60.273        3.021
  8   0.370350876063469 9.50549e-04 6.35963e-04 1.52070e-04       62.804        3.148
Locking on root: 0.370332616303167
  9   0.370332616303167 4.67303e-04 3.54686e-04 1.11774e-04       61.684        3.092
 10   0.370312591933942 1.32061e-04 1.96897e-04 5.80601e-05       66.329        3.324
 11   0.370306312295632 1.09742e-04 1.21572e-04 3.62885e-05       70.763        3.547
 12   0.370305012232777 4.14139e-05 5.40627e-05 2.24646e-05       68.365        3.426
 13   0.370300816016597 3.25362e-05 3.51635e-05 1.07552e-05       73.662        3.692
 14   0.370300637717733 1.58464e-05 1.03682e-05 4.86060e-06       73.493        3.683
 15   0.370299899392705 1.74512e-05 6.14923e-06 2.97769e-06       82.088        4.115
 16   0.370299323139193 5.06827e-06 2.75897e-06 1.72371e-06       78.060        3.912

EOMEE-CCSDT iterations converged in 16 cycles and 50.327 seconds (3.145 s/it.) at 34.067 Gflops/sec

EOMEE-CCSDT excitation energy:   0.370299323139193 ( 10.076356854701070 eV)
Total EOMEE-CCSDT energy:      -112.791999395202055

Converged root:

   A    I                     A    I                     A    I                  
-------------------------- -------------------------- -------------------------- 
  13    6  0.3732079070611   15    6  0.1269056038463   30    6  0.0269781867579 
  12    5  0.3731599801459   24    6  0.0752408467799   31    5  0.0269762657102 
  10    5  0.2364538669499   25    5  0.0752247406334   45    6  0.0135832199934 
   9    6  0.2364424148920   22    6  0.0627361720060   46    5  0.0135816997392 
  16    5  0.1269173225307   21    5  0.0627339194906   18    7 -0.0111843961368 

   A    B    I    J                     A    B    I    J                  
------------------------------------ ------------------------------------ 
  13   12    7    7  0.0570233983979   12   12    6    5 -0.0469524033806 
  12   13    7    7  0.0570233983979   12   12    5    6 -0.0469524033806 
  13   12    6    6 -0.0495011707629   13   10    7    7  0.0328517061921 
  12   13    6    6 -0.0495011707629   10   13    7    7  0.0328517061921 
  13   12    5    5 -0.0494938027009    9   12    7    7  0.0328440849631 
  12   13    5    5 -0.0494938027009   12    9    7    7  0.0328440849631 
  13   13    6    5 -0.0469597714426   13   10    6    6 -0.0300387976825 
  13   13    5    6 -0.0469597714426 

 @CHECKOUT-I, Total execution time (CPU/WALL):    10232.70/     515.46 seconds.
--executable xncc finished with status     0 in      516.33 seconds (walltime).
  The final electronic energy is      -112.791999395202055 a.u. 
  This computation required                          527.00 seconds (walltime).
