 --invoking executable--
/home/CEISAM/blondel-a/soft/cfour2.1/cfour2.1-serial-mkl/bin/xjoda


   *************************************************************************
         <<<     CCCCCC     CCCCCC   |||     CCCCCC     CCCCCC   >>>
       <<<      CCC        CCC       |||    CCC        CCC         >>>
      <<<      CCC        CCC        |||   CCC        CCC            >>>
    <<<        CCC        CCC        |||   CCC        CCC              >>>
      <<<      CCC        CCC        |||   CCC        CCC            >>>
       <<<      CCC        CCC       |||    CCC        CCC         >>>
         <<<     CCCCCC     CCCCCC   |||     CCCCCC     CCCCCC   >>>
   *************************************************************************

     ****************************************************************
     * CFOUR Coupled-Cluster techniques for Computational Chemistry *
     ****************************************************************
 

   Department of Chemistry                Institut fuer Physikalische Chemie
   University of Florida                  Universitaet Mainz
   Gainesville, FL 32611, USA             D-55099 Mainz, Germany

   Department of Chemistry                Fakultaet fuer Chemie und Biowiss.
   Johns Hopkins University               Karlsruher Institut fuer Technologie
   Baltimore, MD 21218, USA               D-76131 Karlsruhe, Germany

   Department of Chemistry                Department of Physical Chemistry
   Southern Methodist University          Eotvos Lorand University
   Dallas, TX 75275, USA                  H-1053 Budapest, Hungary

 
                       Version 2.1
 
                     nazare098                                         
                     Thu Mar 18 21:04:55 CET 2021                      
                     integer*8 version is running
 
********************************************************************************
*                          Input from ZMAT file                                *
********************************************************************************
Ketene -GS                                                                      
C     0.0000000000            0.0000000000           -1.2494205467              
O     0.0000000000            0.0000000000            0.8926669184              
                                                                                
*CFOUR(COORD=CARTESIAN,UNITS=BOHR                                               
       MEMORY=100,MEM_UNIT=GB,CC_PROG=NCC                                       
       FROZEN_CORE=1                                                            
       CALC=CCSD,BASIS=AUG-PVDZ                                                 
       SCF_CONV=8,CC_CONV=7,ESTATE_CONV=5,ESTATE_MAXCYC=120                     
       EXCITE=EOMEE,ESTATE_SYM=3/2/0/2)                                         
                                                                                
********************************************************************************
    -------------------------------------------------------------------
                    CFOUR Control Parameters 
    -------------------------------------------------------------------
        External           Internal           Value            Units
          Name               Name
    -------------------------------------------------------------------
       ABCDTYPE             IABCDT         STANDARD    [  0]    ***   
       ANHARMONIC           IANHAR         OFF         [  0]    ***   
       ANH_ALGORIT          IANALG         STANDARD    [  0]    ***   
       ANH_DERIVAT          IANDER         SECOND      [  1]    ***   
       ANH_MODE             ANHMOD         VIBRATION   [  0]    ***   
       ANH_STEPSIZ          ICUBST             50000          x 10-6  
       ANH_SYMMETR          IANHSM         ABELIAN     [  0]    ***   
       AO_LADDERS           IAOLAD         SINGLEPASS  [  1]    ***   
       AV_SCF               IAVSCF         OFF         [  0]    ***   
       BASIS                IBASIS         AUG-PVDZ    [ 33]    ***   
       BOTHVECTORS          BOTHVC         OFF         [  0]    ***   
       BOX_POTENT           IPIAB          OFF         [  0]    ***   
       BREIT                IBREIT         OFF         [  0]    ***   
       BRUCK_CONV           IBRTOL          10D-  4             ***   
       BRUECKNER            IBRKNR         OFF         [  0]    ***   
       BUFFERSIZE           IBUFFS              4096            ***   
       CACHE_RECS           ICHREC             10               ***   
       CALCLEVEL            ICLLVL         CCSD        [ 10]    ***   
       CCORBOPT             ICCORB         OFF         [  0]  x 0.01  
       CC_CONV              ICCCNV          10D-  7             ***   
       CC_EXPORDER          ICCEOR              5               ***   
       CC_EXTRAPOL          ICCEXT         DIIS        [  1]    ***   
       CC_GUESS             ICCGES         MP2         [  0]    ***   
       CC_MAXCYC            ICCCYC            100              cycles 
       CC_PROGRAM           ICCPRO         NCC         [  5]    ***   
       CHARGE               ICHRGE              0               ***   
       CHOLESKY             ICHOLE         OFF         [  0]    ***   
       CIS_CONV             ICISTL              5               ***   
       COMM_SIZE            IPSIZE            ***               ***   
       CONSTANT             ICONST         OLD         [  1]    ***   
       CONTINUUM            ICONTU         NONE        [  0]    ***   
       CONTRACTION          ICNTYP         GENERAL     [  1]    ***   
       COORDINATES          ICOORD         CARTESIAN   [  1]    ***   
       CPHF_CONVER          ICPHFT          10D- 16             ***   
       CPHF_MAXCYC          ICPHFC             64              cycles 
       CUBIC                ICUBIC         OFF         [  0]    ***   
       CURVILINEAR          ICURVY         OFF         [  0]    ***   
       DBOC                 IDBOC          OFF         [  0]    ***   
       DCT                  IDCT           OFF         [  0]    ***   
       DERIV_LEV            IDRLVL         ZERO        [  0]    ***   
       DEVMEM_SIZE          IDVMEM         *********           MByte  
       DIAG_MRCC            IEOMST          10D-  0             ***   
       DIFF_TYPE            IDIFTY         RELAXED     [  0]    ***   
       DIRECT               IDIRCT         OFF         [  0]    ***   
       DROPMO               IDRPMO      NONE         
       ECP                  IECP           OFF         [  0]    ***   
       EIGENVECTOR          IVEC                1               ***   
       EL_ANHARM            IELANH         OFF         [  0]    ***   
       EOMFOLLOW            IEOMSR         ENERGY      [  0]    ***   
       EOMIP                IEOMIP         OFF         [  0]    ***   
       EOMLEVEL             HBARFM         SAME        [  0]    ***   
       EOM_MRCC             IMRCCE         NEW         [  1]    ***   
       EOM_NONIT            EOMNON         OFF         [  0]    ***   
       EOM_NSING            IEOMSI          10D-  0             ***   
       EOM_NSTATES          IMRCCD         DAVIDSON    [  0]    ***   
       EOM_NTRIP            IEOMTR          10D-  0             ***   
       EOM_ORDER            IEXORD         ENERGY      [  0]    ***   
       EOM_PROPSTA          IEOMST              0               ***   
       ESTATE_CONV          IEXTOL          10D-  5             ***   
       ESTATE_DIAG          IEXDIG         ITERATIVE   [  0]    ***   
       ESTATE_LOCK          IESLOC         ON          [  1]    ***   
       ESTATE_MAXC          IEXMXC            120               ***   
       ESTATE_PROP          IEXPRP         OFF         [  0]    ***   
       ESTATE_SYM           IEXSYM   3,  2,  0,  2,
       EVAL_HESS            IRECAL              0            # of cyc.
       EXCITATION           IEXCIT              0               ***   
       EXCITE               IEXCIT         EOMEE       [  3]    ***   
       EXTERN_POT           IEXPOT         OFF         [  0]    ***   
       FCGRADNEW            IFCGNW         OFF         [  0]    ***   
       FC_FIELD             IFINFC              0             x 10-6  
       FD_CALTYPE           IFDCAL         GRADONLY    [  0]    ***   
       FD_PROJECT           IFDPRJ         OFF         [  1]    ***   
       FD_STEPSIZE          IDISFD              0            10-4 bohr
       FD_USEGROUP          IFDGRP         FULL        [  0]    ***   
       FILE_RECSIZ          IFLREC              4096           words  
       FINITE_PERT          IFIPER              0             x 10-6  
       FIXGEOM              IFIXGM         OFF         [  0]    ***   
       FOCK                 IFOCK          AO          [  1]    ***   
       FREQ_ALGORI          IVIALG         STANDARD    [  0]    ***   
       FROZEN_CORE          IFROCO         ON          [  1]    ***   
       GAMMA_ABCD           IGABCD         STORE       [  0]    ***   
       GAMMA_ABCI           IGABCI         STORE       [  0]    ***   
       GENBAS_1             IGNBS1              0               ***   
       GENBAS_2             IGNBS2              0               ***   
       GENBAS_3             IGNBS3              0               ***   
       GENBAS_4             IGNBS4              0               ***   
       GEO_CONV             ICONTL              5              H/bohr 
       GEO_MAXCYC           IOPTCY             50               ***   
       GEO_MAXSTEP          IMXSTP            300            millibohr
       GEO_METHOD           INR            SINGLE_POINT[  5]    ***   
       GIAO                 IGIAO          OFF         [  1]    ***   
       GIMIC                IGIMIC         OFF         [  0]    ***   
       GRID                 IGRID          OFF         [  0]    ***   
       GRID_ALGO            IGALGO         SERIAL      [  0]    ***   
       GUESS                IGUESS         MOREAD      [  0]    ***   
       HBAR                 IHBAR          ON          [  1]    ***   
       HESS_TYPE            IHESTP         SCF         [  0]    ***   
       HF2_FILE             IHF2Fl         USE         [  1]    ***   
       HFSTABILITY          ISTABL         OFF         [  0]    ***   
       INCORE               INCORE         OFF         [  0]    ***   
       INPUT_MRCC           IMRCC          ON          [  1]    ***   
       INTEGRALS            INTTYP         VMOL        [  1]    ***   
       JODA_PRINT           IJPRNT              0               ***   
       KEYWORD_OUT          IDMPKW         NO          [  0]    ***   
       LINDEP_TOL           ILINDP              8               ***   
       LINEQ_CONV           IZTACN          10D-  7           cycles  
       LINEQ_EXPOR          ILMAXD              5               ***   
       LINEQ_MAXCY          ILMAXC            100               ***   
       LINEQ_TYPE           ILTYPE         DIIS        [  1]    ***   
       LOCK_ORBOCC          ILOCOC         OFF         [  0]    ***   
       MEMORY_SIZE          IMEMSZ         *********           words  
       MEM_UNIT             IMEMU          GB          [  3]    ***   
       MRCC                 IMRCCC         OFF         [  0]    ***   
       MULTIPLICTY          IMULTP              1               ***   
       NACOUPLING           IVCOUP         OFF         [  0]    ***   
       NEGEVAL              IDIE           ABORT       [  0]    ***   
       NEWNORM              INEWNO         OFF         [  0]    ***   
       NON-HF               INONHF         OFF         [  0]    ***   
       NTOP_TAMP            ITOPT2             15               ***   
       NUC_MODEL            INUCMO         POINT       [  0]    ***   
       OCCUPATION           IOCCU   ESTIMATED BY SCF 
       OPEN-SHELL           IOPEN          SPIN-ORBITAL[  0]    ***   
       OPTVIB               IOPTVB         OFF         [  0]    ***   
       ORBITALS             IORBTP         STANDARD    [  0]    ***   
       PARALLEL             IPARAL         ON          [  1]    ***   
       PARA_INT             IPINTS         ON          [  1]    ***   
       PARA_PRINT           IPPRIN              0               ***   
       PERT_ORB             IPTORB         STANDARD    [  0]    ***   
       POINTS               IGRDFD              0               ***   
       PRINT                IPRNT               0               ***   
       PROPS                IPROPS         OFF         [  0]    ***   
       PROP_INTEGR          IINTYP         INTERNAL    [  0]    ***   
       PSI                  IPSI           OFF         [  0]    ***   
       QC_ALG               IQCALG         FLM         [  0]    ***   
       QC_LINALG            IQCLIN         TRIDIAG     [  2]    ***   
       QC_MAXCYC            IQCMAX          10D-100           cycles  
       QC_MAXSCFCY          IQCMSC          10D- 15           cycles  
       QC_RTRUST            IQCRTR          10D-  0           x 10-3  
       QC_SKIPSCF           IQCSKI         OFF         [  0]    ***   
       QC_START             IQCSTA          10D-  1             ***   
       QRHFGUESS            IQGUES         OFF         [  0]    ***   
       QUARTIC              IQUART         OFF         [  0]    ***   
       RAMAN_INT            IRAMIN         OFF         [  0]    ***   
       RAMAN_ORB            IRAMRE         UNRELAXED   [  0]    ***   
       RDO                  IRDOFM         OFF         [  0]    ***   
       REDUCE_REPR          REDREP         Ir          [  0]    ***   
       REFERENCE            IREFNC         RHF         [  0]    ***   
       RELATIVIST           IRELAT         OFF         [  0]    ***   
       RELAX_DENS           IRDENS         OFF         [  0]    ***   
       RESET_FLAGS          IRESET         OFF         [  0]    ***   
       RESTART_CC           ICCRES         OFF         [  0]    ***   
       ROT_EVEC             ROTVEC              0               ***   
       SAVE_INTS            ISVINT         OFF         [  0]    ***   
       SCALE_ON             ISTCRT              0               ***   
       SCF_CONV             ISCFCV          10D-  8             ***   
       SCF_DAMPING          IDAMP               0             x 10-3  
       SCF_EXPORDE          IRPPOR              6               ***   
       SCF_EXPSTAR          IRPPLS              8               ***   
       SCF_EXTRAPO          IRPP           ON          [  1]    ***   
       SCF_MAXCYC           ISCFCY            150              cycles 
       SCF_NOSTOP           ISCFST         OFF         [  0]    ***   
       SCF_PRINT            ISCFPR              0               ***   
       SCF_PROG             ISCFPR         SCF         [  0]    ***   
       SD_FIELD             IFINSD              0             x 10-6  
       SOPERT               IPERSO         OFF         [  0]    ***   
       SPHERICAL            IDFGHI         ON          [  1]    ***   
       SPINORBIT            ISOCAL         OFF         [  0]    ***   
       SPINROTATIO          ISRCON         OFF         [  0]    ***   
       SPIN_FLIP            ISPFLP         OFF         [  0]    ***   
       SPIN_ORBIT           ISPORB         OFF         [  0]    ***   
       SPIN_SCAL            ISCSMP         OFF         [  0]    ***   
       STEEPSCALE           ISTPSC              1000          x 10-3  
       SUBGROUP             ISUBGP         DEFAULT     [  0]    ***   
       SUBGRPAXIS           ISBXYZ         X           [  0]    ***   
       SYMMETRY             ISYM           ON          [  0]    ***   
       SYM_CHECK            ISYMCK         OVERRIDE    [  1]    ***   
       T3_EXTRAPOL          IT3EXT         OFF         [  0]    ***   
       T4_EXTRAPOL          IT4EXP         OFF         [  0]    ***   
       TAMP_SUM             IEVERY              5               ***   
       TESTSUITE            ITESTS         OFF         [  0]    ***   
       THERMOCH             ITHERM         OFF         [  0]    ***   
       TOL_CHOLESK          ITOLCH          10D-  4             ***   
       TRANGRAD             IRESRM         OFF         [  0]    ***   
       TRANS_INV            ITRAIN         USE         [  0]    ***   
       TREAT_PERT           ITREAT         SIMULTANEOUS[  0]    ***   
       TRIP_ALGORI          ITRALG         NORMAL      [  0]    ***   
       UIJ_THRESHO          IUIJTH              1               ***   
       UNITS                IUNITS         BOHR        [  1]    ***   
       UNOS                 IUNOS          OFF         [  0]    ***   
       UPDATE_HESS          IHUPDT         ON          [  1]    ***   
       VIBPHASE             ISETPH         STANDARD    [  0]    ***   
       VIBRATION            IVIB           NO          [  0]    ***   
       VIB_ALGORIT          IGEALG         STANDARD    [  0]    ***   
       VNATORB              IVNORB         OFF         [  0]    ***   
       VTRAN                IVTRAN         FULL/PARTIAL[  0]    ***   
       XFIELD               IXEFLD              0             x 10-6  
       XFORM_TOL            IXFTOL          10D- 11             ***   
       YFIELD               IYEFLD              0             x 10-6  
       ZFIELD               IZEFLD              0             x 10-6  
       ZSCALE_EXP           IZEXPS         OFF         [  0]    ***   
    -------------------------------------------------------------------
  @GETXYZ-I,     2 atoms read from ZMAT.
   Rotational constants (in cm-1): 
          1.9135333977             1.9135333977
   Rotational constants (in MHz): 
      57366.2961120363         57366.2961120363
********************************************************************************
   The full molecular point group is CXv .
   The largest Abelian subgroup of the full molecular point group is C2v .
   The computational point group is C2v .
********************************************************************************


 ----------------------------------------------------------------
         Coordinates used in calculation (QCOMP) 
 ----------------------------------------------------------------
 Z-matrix   Atomic            Coordinates (in bohr)
  Symbol    Number           X              Y              Z
 ----------------------------------------------------------------
     C         6        -0.00000000     0.00000000     1.22388322
     O         8         0.00000000     0.00000000    -0.91820425
 ----------------------------------------------------------------
 
   Interatomic distance matrix (Angstroms) 
 
                 C             O    
                [ 1]        [ 2]
  C    [ 1]     0.00000
  O    [ 2]     1.13354     0.00000
 rotcon2
   Rotational constants (in cm-1): 
          1.9135333977             0.0000000000
   Rotational constants (in MHz): 
      57366.2961120363             0.0000000000
  There are   2 frozen-core orbitals.
  There are   46 basis functions.
 @GEOPT-W, Archive file not created for single-point calculation.
 @CHECKOUT-I, Total execution time (CPU/WALL):        0.14/       1.70 seconds.
--executable xjoda finished with status     0 in        2.34 seconds (walltime).
 --invoking executable--
/home/CEISAM/blondel-a/soft/cfour2.1/cfour2.1-serial-mkl/bin/xvmol
 SERIAL VERSION OF MOLECULE STARTED
********************************************************************************
                    INPUT FROM MOL FILE
********************************************************************************
INTGRL        1    0    1    0    0    0    0    0    0                         
         *** CFOUR Program System (Release V0.1) ***                            
Ketene -GS                                                                      
    2    2 X  Y       0.10E-08              0    0                              
   9999.00      3.00                                                            
          6.00000000    1    3    1    1    1                                   
C #1  -0.000000000000000   0.000000000000000   1.223883215473396                
   10    4                                                                      
   6665.00000000000       6.920000000000000E-004 -1.460000000000000E-004        
  0.000000000000000E+000  0.000000000000000E+000                                
   1000.00000000000       5.329000000000000E-003 -1.154000000000000E-003        
  0.000000000000000E+000  0.000000000000000E+000                                
   228.000000000000       2.707700000000000E-002 -5.725000000000000E-003        
  0.000000000000000E+000  0.000000000000000E+000                                
   64.7100000000000       0.101718000000000      -2.331200000000000E-002        
  0.000000000000000E+000  0.000000000000000E+000                                
   21.0600000000000       0.274740000000000      -6.395500000000000E-002        
  0.000000000000000E+000  0.000000000000000E+000                                
   7.49500000000000       0.448564000000000      -0.149981000000000             
  0.000000000000000E+000  0.000000000000000E+000                                
   2.79700000000000       0.285074000000000      -0.127262000000000             
  0.000000000000000E+000  0.000000000000000E+000                                
  0.521500000000000       1.520400000000000E-002  0.544529000000000             
  0.000000000000000E+000  0.000000000000000E+000                                
  0.159600000000000      -3.191000000000000E-003  0.580496000000000             
   1.00000000000000       0.000000000000000E+000                                
  4.690000000000000E-002  0.000000000000000E+000  0.000000000000000E+000        
  0.000000000000000E+000   1.00000000000000                                     
    5    3                                                                      
   9.43900000000000       3.810900000000000E-002  0.000000000000000E+000        
  0.000000000000000E+000                                                        
   2.00200000000000       0.209480000000000       0.000000000000000E+000        
  0.000000000000000E+000                                                        
  0.545600000000000       0.508557000000000       0.000000000000000E+000        
  0.000000000000000E+000                                                        
  0.151700000000000       0.468842000000000        1.00000000000000             
  0.000000000000000E+000                                                        
  4.041000000000000E-002  0.000000000000000E+000  0.000000000000000E+000        
   1.00000000000000                                                             
    2    2                                                                      
  0.550000000000000        1.00000000000000       0.000000000000000E+000        
  0.151000000000000       0.000000000000000E+000   1.00000000000000             
          8.00000000    1    3    1    1    1                                   
O #2   0.000000000000000   0.000000000000000  -0.918204249626604                
   10    4                                                                      
   11720.0000000000       7.100000000000000E-004 -1.600000000000000E-004        
  0.000000000000000E+000  0.000000000000000E+000                                
   1759.00000000000       5.470000000000000E-003 -1.263000000000000E-003        
  0.000000000000000E+000  0.000000000000000E+000                                
   400.800000000000       2.783700000000000E-002 -6.267000000000000E-003        
  0.000000000000000E+000  0.000000000000000E+000                                
   113.700000000000       0.104800000000000      -2.571600000000000E-002        
  0.000000000000000E+000  0.000000000000000E+000                                
   37.0300000000000       0.283062000000000      -7.092400000000000E-002        
  0.000000000000000E+000  0.000000000000000E+000                                
   13.2700000000000       0.448719000000000      -0.165411000000000             
  0.000000000000000E+000  0.000000000000000E+000                                
   5.02500000000000       0.270952000000000      -0.116955000000000             
  0.000000000000000E+000  0.000000000000000E+000                                
   1.01300000000000       1.545800000000000E-002  0.557368000000000             
  0.000000000000000E+000  0.000000000000000E+000                                
  0.302300000000000      -2.585000000000000E-003  0.572759000000000             
   1.00000000000000       0.000000000000000E+000                                
  7.896000000000000E-002  0.000000000000000E+000  0.000000000000000E+000        
  0.000000000000000E+000   1.00000000000000                                     
    5    3                                                                      
   17.7000000000000       4.301800000000000E-002  0.000000000000000E+000        
  0.000000000000000E+000                                                        
   3.85400000000000       0.228913000000000       0.000000000000000E+000        
  0.000000000000000E+000                                                        
   1.04600000000000       0.508728000000000       0.000000000000000E+000        
  0.000000000000000E+000                                                        
  0.275300000000000       0.460531000000000        1.00000000000000             
  0.000000000000000E+000                                                        
  6.856000000000000E-002  0.000000000000000E+000  0.000000000000000E+000        
   1.00000000000000                                                             
    2    2                                                                      
   1.18500000000000        1.00000000000000       0.000000000000000E+000        
  0.332000000000000       0.000000000000000E+000   1.00000000000000             
FINISH                                                                          
 
********************************************************************************
 ONE- AND TWO-ELECTRON INTEGRALS OVER SYMMETRY-ADAPTED AOS ARE CALCULATED.

  SPHERICAL HARMONICS ARE USED.
  
  INTEGRALS LESS THAN  0.10E-13 ARE NEGLECTED.

  NUCLEAR REPULSION ENERGY :   22.4080485891 A.U.
  @MOLECU-I, ONE ELECTRON INTEGRALS (CPU/WALL):        0.02/       0.03 SECONDS.
  @TWOEL-I,      20634 INTEGRALS OF SYMMETRY TYPE  I I I I
  @TWOEL-I,      54522 INTEGRALS OF SYMMETRY TYPE  I J I J
  @TWOEL-I,      31497 INTEGRALS OF SYMMETRY TYPE  I I J J
  @TWOEL-I,      23276 INTEGRALS OF SYMMETRY TYPE  I J K L
  @TWOEL-I, TOTAL NUMBER OF 2-E INTEGRALS     129929.
  @MOLECU-I, TWO ELECTRON INTEGRALS (CPU/WALL):        1.76/       0.10 SECONDS.
 @CHECKOUT-I, Total execution time (CPU/WALL):        1.80/       0.14 seconds.

Running with 20 threads/proc

--executable xvmol finished with status     0 in        0.64 seconds (walltime).
 --invoking executable--
/home/CEISAM/blondel-a/soft/cfour2.1/cfour2.1-serial-mkl/bin/xvmol2ja
 @GETMEM-I,  Allocated   95367 MB of main memory.
 @CHECKOUT-I, Total execution time (CPU/WALL):        0.10/       0.03 seconds.
--executable xvmol2ja finished with status     0 in        0.51 seconds (walltime).
 --invoking executable--
/home/CEISAM/blondel-a/soft/cfour2.1/cfour2.1-serial-mkl/bin/xvscf
  There are   46 functions in the AO basis.

  There are 4 irreducible representations.

       Irrep        # of functions
         1                 22
         2                 10
         3                 10
         4                  4


  Parameters for SCF calculation: 
        SCF reference function:  RHF  
  Maximum number of iterations:  150
     Full symmetry point group: CXv 
     Computational point group: C2v 
        Initial density matrix: MOREAD                 
     SCF convergence tolerance: 10**(- 8)
  DIIS convergence acceleration:  ON
          Latest start for DIIS:   8
                     DIIS order:   6

  Memory information:     124718 words required.
  Fock matrices are constructed from AO integral file.
 @GETMEM-I,  Allocated       0 MB of main memory.
  Initialization and symmetry analysis required      0.002 seconds.

  @INITGES-I, Occupancies from core Hamiltonian:

          Alpha population by irrep:   5    1    1    0
           Beta population by irrep:   5    1    1    0


 total no. of electrons in initial guess :  0.000000000000000E+000
  --------------------------------------------------------------------
  Iteration         Total Energy            Largest Density Difference
  --------------------------------------------------------------------
       0            22.408048589070660              0.0000000000D+00
   current occupation vector 
     5  1  1  0
     5  1  1  0
       1          -101.770413872132622              0.1172489943D+02
   current occupation vector 
     5  1  1  0
     5  1  1  0
       2           -99.556892574791689              0.1159131805D+02
   current occupation vector 
     5  1  1  0
     5  1  1  0
       3          -105.369528038964958              0.8816136348D+01
   current occupation vector 
     5  1  1  0
     5  1  1  0
       4          -101.277741407632789              0.8811206339D+01
   current occupation vector 
     5  1  1  0
     5  1  1  0
       5          -104.205473143905238              0.8778673672D+01
   current occupation vector 
     5  1  1  0
     5  1  1  0
       6          -100.851874086183997              0.8718002090D+01
   current occupation vector 
     5  1  1  0
     5  1  1  0
       7          -104.141123097515717              0.7480747250D+01
   current occupation vector 
     5  1  1  0
     5  1  1  0
       8          -100.790048666015011              0.7467250466D+01
   current occupation vector 
     5  1  1  0
     5  1  1  0
       9          -112.206171404069721              0.3931276014D+01
   current occupation vector 
     5  1  1  0
     5  1  1  0
      10          -112.610847449411580              0.4991632208D+00
   current occupation vector 
     5  1  1  0
     5  1  1  0
      11          -112.748787531133644              0.2734785535D+00
   current occupation vector 
     5  1  1  0
     5  1  1  0
      12          -112.753991182523635              0.6677754256D-01
   current occupation vector 
     5  1  1  0
     5  1  1  0
      13          -112.754132493541249              0.2621699120D-01
   current occupation vector 
     5  1  1  0
     5  1  1  0
      14          -112.754164899356823              0.9295512821D-02
   current occupation vector 
     5  1  1  0
     5  1  1  0
      15          -112.754165434523202              0.2119112088D-02
   current occupation vector 
     5  1  1  0
     5  1  1  0
      16          -112.754165448065947              0.2209579251D-03
   current occupation vector 
     5  1  1  0
     5  1  1  0
      17          -112.754165448184040              0.1935862282D-04
   current occupation vector 
     5  1  1  0
     5  1  1  0
      18          -112.754165448190292              0.4744247093D-05
   current occupation vector 
     5  1  1  0
     5  1  1  0
      19          -112.754165448190406              0.6517129041D-06
   current occupation vector 
     5  1  1  0
     5  1  1  0
      20          -112.754165448190378              0.2630115552D-06
   current occupation vector 
     5  1  1  0
     5  1  1  0

  SCF has converged.

 Density matrix saved to file den.dat
 total electron number:   14.0000000000000     
     E(SCF)=      -112.754165448190577              0.8579826183D-08

  Eigenvector printing suppressed.

 @PUTMOS-I, Writing converged MOs to NEWMOS. 
 @PUTMOS-I, Symmetry   1 Full Blocks  5 Partial Blocksize   2
 @PUTMOS-I, Symmetry   2 Full Blocks  2 Partial Blocksize   2
 @PUTMOS-I, Symmetry   3 Full Blocks  2 Partial Blocksize   2
 @PUTMOS-I, Symmetry   4 Full Blocks  1 Partial Blocksize   0
 @PUTFOCK-I, Writing converged Fock matrix to NEWFOCK. 
 @PUTFOCK-I, Symmetry   1 Full Blocks  5 Partial Blocksize   2
 @PUTFOCK-I, Symmetry   2 Full Blocks  2 Partial Blocksize   2
 @PUTFOCK-I, Symmetry   3 Full Blocks  2 Partial Blocksize   2
 @PUTFOCK-I, Symmetry   4 Full Blocks  1 Partial Blocksize   0


 
  ORBITAL EIGENVALUES (ALPHA)  (1H = 27.2113834 eV)

       MO #        E(hartree)               E(eV)           FULLSYM    COMPSYM
       ----   --------------------   --------------------   -------   ---------
    1     1         -20.6786426341        -562.6944729077     SG+        A1 (1)
    2     2         -11.3760025849        -309.5567678981     SG+        A1 (1)
    3     3          -1.5262528800         -41.5314522819     SG+        A1 (1)
    4     4          -0.8078514557         -21.9827556923     SG+        A1 (1)
    5    23          -0.6387300373         -17.3807279336      PI        B1 (2)
    6    33          -0.6387300373         -17.3807279336      PI        B2 (3)
    7     5          -0.5552995948         -15.1104701756     SG+        A1 (1)
  +++++++++++++++++++++++++++++++++++++++++++++++++++++++++++++++++++++++++++++
    8    34           0.0785902742           2.1385500839      PI        B2 (3)
    9    24           0.0785902742           2.1385500839      PI        B1 (2)
   10     6           0.0814344478           2.2159439821     SG+        A1 (1)
   11     7           0.1055195039           2.8713316758     SG+        A1 (1)
   12    35           0.1694667774           4.6114254545      PI        B2 (3)
   13    25           0.1694667774           4.6114254545      PI        B1 (2)
   14     8           0.2251901959           6.1277367582     SG+        A1 (1)
   15    36           0.2478783858           6.7451137915      PI        B2 (3)
   16    26           0.2478783858           6.7451137915      PI        B1 (2)
   17     9           0.3350066878           9.1159954230     SG+        A1 (1)
   18    10           0.4337503161          11.8029461502      DE        A1 (1)
   19    43           0.4337503161          11.8029461502      DE        A2 (4)
   20    11           0.5218862937          14.2012480300     SG+        A1 (1)
   21    37           0.6020431848          16.3824279244      PI        B2 (3)
   22    27           0.6020431848          16.3824279244      PI        B1 (2)
   23    12           0.6973668078          18.9763155777     SG+        A1 (1)
   24    38           0.7467300122          20.3195566571      PI        B2 (3)
   25    28           0.7467300122          20.3195566571      PI        B1 (2)
   26    13           0.9372377491          25.5035357283     SG+        A1 (1)
   27    44           1.0541785010          28.6856553637      DE        A2 (4)
   28    14           1.0541785010          28.6856553637      DE        A1 (1)
   29    15           1.0562226039          28.7412782301     SG+        A1 (1)
   30    39           1.2062288794          32.8231565053      PI        B2 (3)
   31    29           1.2062288794          32.8231565053      PI        B1 (2)
   32    16           1.4270267763          38.8313727312     SG+        A1 (1)
   33    17           1.6521204063          44.9564817992      DE        A1 (1)
   34    45           1.6521204063          44.9564817992      DE        A2 (4)
   35    30           1.6691368080          45.4195216294      PI        B1 (2)
   36    40           1.6691368080          45.4195216294      PI        B2 (3)
   37    41           1.9652423796          53.4769638665      PI        B2 (3)
   38    31           1.9652423796          53.4769638665      PI        B1 (2)
   39    18           2.1345639001          58.0844366780     SG+        A1 (1)
   40    19           2.2260613737          60.5742095116     SG+        A1 (1)
   41    20           2.9840348454          81.1997162579     SG+        A1 (1)
   42    46           3.5502389237          96.6069125133      DE        A2 (4)
   43    21           3.5502389237          96.6069125133      DE        A1 (1)
   44    32           3.6706196126          99.8826375947      PI        B1 (2)
   45    42           3.6706196126          99.8826375947      PI        B2 (3)
   46    22           4.0313995857         109.6999597643     SG+        A1 (1)


  VSCF finished.

 @CHECKOUT-I, Total execution time (CPU/WALL):        3.87/       0.32 seconds.
--executable xvscf finished with status     0 in        0.81 seconds (walltime).
 --invoking executable--
/home/CEISAM/blondel-a/soft/cfour2.1/cfour2.1-serial-mkl/bin/xvtran
 @GETMEM-I,  Allocated   95367 MB of main memory.
  Full RHF integral transformation
  The following   2 MOs will be dropped:
    1  2
  There are  44 active molecular orbitals.
  Transformation of IIII integrals :
  1 pass through the AO integral file was required.
       20634 AO integrals were read.
       22818 MO integrals were written to HF2.
  Transformation of IIJJ integrals :
  1 pass through the AO integral file was required.
       31497 AO integrals were read.
       29197 MO integrals were written to HF2.
  Transformation of IJIJ integrals :
  1 pass through the AO integral file was required.
       54522 AO integrals were read.
       49598 MO integrals were written to HF2.
  Transformation of IJKL integrals :
  1 pass through the AO integral file was required.
       23276 AO integrals were read.
       22941 MO integrals were written to HF2.
  Summary of active molecular orbitals: 
------------------------------------------------------------------------
 
  Index      Eigenvalue    Symmetry    Index      Eigenvalue    Symmetry
------------------------------------------------------------------------
     1        -1.5262529        1        23         0.0785903        2
     2        -0.8078515        1        24         0.1694668        2
     3        -0.5552996        1        25         0.2478784        2
     4        -0.6387300        2        26         0.6020432        2
     5        -0.6387300        3        27         0.7467300        2
     6         0.0814344        1        28         1.2062289        2
     7         0.1055195        1        29         1.6691368        2
     8         0.2251902        1        30         1.9652424        2
     9         0.3350067        1        31         3.6706196        2
    10         0.4337503        1        32         0.0785903        3
    11         0.5218863        1        33         0.1694668        3
    12         0.6973668        1        34         0.2478784        3
    13         0.9372377        1        35         0.6020432        3
    14         1.0541785        1        36         0.7467300        3
    15         1.0562226        1        37         1.2062289        3
    16         1.4270268        1        38         1.6691368        3
    17         1.6521204        1        39         1.9652424        3
    18         2.1345639        1        40         3.6706196        3
    19         2.2260614        1        41         0.4337503        4
    20         2.9840348        1        42         1.0541785        4
    21         3.5502389        1        43         1.6521204        4
    22         4.0313996        1        44         3.5502389        4
------------------------------------------------------------------------
  -1.52625287995880      -0.807851455736088      -0.555299594786228     
 -0.638730037281788      -0.638730037281784       8.143444783853974E-002
  0.105519503864135       0.225190195887227       0.335006687790155     
  0.433750316061240       0.521886293734525       0.697366807808289     
  0.937237749120514        1.05417850103548        1.05622260388759     
   1.42702677627198        1.65212040631474        2.13456390011998     
   2.22606137369605        2.98403484542806        3.55023892365962     
   4.03139958567225       7.859027424067482E-002  0.169466777441372     
  0.247878385761182       0.602043184781624       0.746730012156610     
   1.20622887939123        1.66913680799645        1.96524237964708     
   3.67061961262463       7.859027424067191E-002  0.169466777441372     
  0.247878385761178       0.602043184781615       0.746730012156584     
   1.20622887939123        1.66913680799648        1.96524237964707     
   3.67061961262463       0.433750316061240        1.05417850103547     
   1.65212040631474        3.55023892365961     
 @CHECKOUT-I, Total execution time (CPU/WALL):        0.83/       0.08 seconds.
--executable xvtran finished with status     0 in        0.55 seconds (walltime).
 --invoking executable--
/home/CEISAM/blondel-a/soft/cfour2.1/cfour2.1-serial-mkl/bin/xintprc
 @GETMEM-I,  Allocated   95367 MB of main memory.
  Processing integrals for CCSD calculation.
  @GMOIAA-I, Processing MO integrals for spin case AA.
  @GMOIAA-I, Generation of integral list completed.
                      TYPE                NUMBER
                      ----               --------
                      PPPP                 76399
                      PPPH                 38833
                      PPHH                  5136
                      PHPH                  3275
                      PHHH                   862
                      HHHH                    49

                     TOTAL                124554

  @FORMT2-I, Second-order MP correlation energies:
            ------------------------------------------------
            E(SCF)                  =   -112.754165448191 a.u.
            E2(AA)                  =     -0.039651395505 a.u.
            E2(AB)                  =     -0.220928162489 a.u.
            E2(TOT)                 =     -0.300230953499 a.u.
            Total MP2 energy        =   -113.054396401690 a.u.
            ------------------------------------------------
   Largest T2 amplitudes for spin case AB:
       _       _                 _       _                 _       _
   i   j   a   b             i   j   a   b             i   j   a   b
-----------------------------------------------------------------------------
[  5   5  33  33]-0.03960 [  4   4  24  24]-0.03960 [  5   4  33  24]-0.03165
[  4   5  24  33]-0.03165 [  3   3  24  24]-0.02962 [  3   3  33  33]-0.02962
[  3   3  15  15]-0.02568 [  5   5  33  32]-0.02435 [  5   5  32  33]-0.02435
[  4   4  24  23]-0.02435 [  4   4  23  24]-0.02435 [  5   4  33  23]-0.01965
[  4   5  23  33]-0.01965 [  5   4  32  24]-0.01965 [  4   5  24  32]-0.01965
-----------------------------------------------------------------------------
   Norm of T2AB vector (    10269 symmetry allowed elements):  0.2699068942.
-----------------------------------------------------------------------------
 @CHECKOUT-I, Total execution time (CPU/WALL):        0.24/       0.08 seconds.
--executable xintprc finished with status     0 in        0.57 seconds (walltime).
  calling xncc 
 --invoking executable--
/home/CEISAM/blondel-a/soft/cfour2.1/cfour2.1-serial-mkl/bin/xncc
 @GETMEM-I,  Allocated       7 MB of main memory.

Running with 20 threads/proc

Following the lowest-energy eigenvector.
Using discrete restarting.
Using an orthogonal subspace.
Orthogonalizing against previous roots.
Using Modified Gram-Schmidt orthogonalization.

Using DIIS to accelerate the convergence of T1 and T2
Using immediate high-order contributions
Damping factor for T3: 0.000000
Damping factor for T4: 0.000000

Transposes are coarse-threaded

Memory limit:                 93.132 GiB
Minimum memory requirement:    2.955 MiB
Compromise memory amount:      9.349 MiB
Optimal memory requirement:   15.053 MiB

List              Location   Size        Cached Hunks Est. Disk I/O
----------------- ---------- ----------- ------ ----- -------------

           HR_DAV      470:1    2.603 MiB    Yes     -   727.949 MiB
                R        471  528.703 KiB    Yes     -    46.468 MiB
            R_DAV      470:0    2.603 MiB    Yes     -     1.529 GiB
           T_DIIS       70:0  403.828 KiB    Yes     -     7.099 MiB
           Z_DIIS       70:1  403.828 KiB    Yes     -    11.831 MiB
          <AI|bj>         18   80.227 KiB    Yes     -     3.130 MiB
          <Ab|Cd>        233    4.522 MiB    Yes     -   547.119 MiB
          <Ab|Ci>         30  605.086 KiB    Yes     -   481.587 MiB
          <Ab|Ij>         16   80.227 KiB    Yes     -    80.618 MiB
          <Ai|Bj>         25   80.227 KiB    Yes     -     2.585 MiB
          <Aj|bI>         21   80.227 KiB     No     -         0   B
          <Ij|Ka>         10   10.898 KiB    Yes     -     8.270 MiB
          <Ij|Kl>         13    1.539 KiB    Yes     -    24.625 KiB
           DD(AI)      448:8      552   B    Yes     -    43.688 KiB
        DD(Ab,Ij)        450   80.227 KiB    Yes     -     7.921 MiB
            F(EA)       92:0    3.648 KiB    Yes     -     2.205 MiB
            F(EM)       93:0      552   B    Yes     -   115.898 KiB
            F(MI)       91:0       88   B    Yes     -    54.484 KiB
           HR(AI)      490:2      552   B    Yes     -     2.866 MiB
        HR(Ab,Ij)        463   80.227 KiB    Yes     -   577.735 MiB
            R(AI)      490:0      552   B    Yes     -     8.415 MiB
         R(Ab,Ij)        446   80.227 KiB    Yes     -     1.561 GiB
            T(AI)       90:0      552   B    Yes     -   492.703 KiB
         T(Ab,Ij)         46   80.227 KiB    Yes     -    35.021 MiB
         W(Mn,Ij)         53    1.539 KiB    Yes     -   210.852 KiB
        W~(Ab,Ej)        130  605.086 KiB    Yes     -    64.409 MiB
        W~(EM,bj)         56   80.227 KiB    Yes     -    17.175 MiB
        W~(Em,Bj)         58   80.227 KiB    Yes     -    14.807 MiB
        W~(Ij,Mb)        110   10.898 KiB    Yes     -     1.639 MiB
       W~~(EM,bj)         76   80.227 KiB    Yes     -   641.812 KiB
       W~~(Em,Bj)         78   80.227 KiB    Yes     -   641.812 KiB
         X(Ab,Ej)        430  605.086 KiB     No     -         0   B
         X(Ab,Ij)        416   80.227 KiB     No     -         0   B
            X(EA)      492:0    3.648 KiB    Yes     -     1.890 MiB
            X(EM)      493:0      552   B    Yes     -    85.078 KiB
         X(EM,bj)        418   80.227 KiB     No     -         0   B
         X(Ef,Am)        469  605.086 KiB     No     -         0   B
         X(Em,Bj)        425   80.227 KiB     No     -         0   B
         X(Ij,Mb)        410   10.898 KiB    Yes     -     2.990 MiB
            X(MI)      491:0       88   B    Yes     -    34.453 KiB
         X(Mn,Ie)        465   10.898 KiB     No     -         0   B
         X(Mn,Ij)        413    1.539 KiB    Yes     -   266.016 KiB
            Z(AI)       90:2      552   B    Yes     -    80.859 KiB
         Z(Ab,Ij)         63   80.227 KiB    Yes     -    11.752 MiB

Simulation and memory analysis took 0.056 seconds

MP2 correlation energy:  -0.300230953499374

Non-iterative calculation of MP2 took 0.441 cpu seconds and 0.025 walltime seconds at 0.020 Gflops/sec

Total MP2 energy: -113.054396401689957

Beginning iterative solution of CCSD equations:

It.  Correlation Energy T1 Residual T2 Residual CPU Time (s) Walltime (s)
-------------------------------------------------------------------------
  1  -0.292947012320867 2.68143e-02 9.64206e-03        0.450        0.023
  2  -0.305873236071882 3.27908e-03 5.79315e-03        0.202        0.010
  3  -0.305170948834788 4.43633e-03 1.98239e-03        0.195        0.010
  4  -0.306889613905258 4.94545e-04 3.99375e-04        0.195        0.010
  5  -0.307026752771391 1.92312e-04 1.47277e-04        0.195        0.010

   A    I                     A    I                     A    I                  
-------------------------- -------------------------- -------------------------- 
  12    6  0.0305937638333   35    5  0.0122072722536   15    6  0.0074065727077 
  13    5  0.0305937638333   17    7 -0.0112349242698   16    5  0.0074065727077 
   8    6  0.0176392120096   24    6  0.0108523048887   20    4  0.0072885549161 
   9    5  0.0176392120096   25    5  0.0108523048887   26    7 -0.0060910522030 
  36    6  0.0122072722536   10    7  0.0104739697726   29    7  0.0053379373950 

   A    B    I    J                     A    B    I    J                  
------------------------------------ ------------------------------------ 
  13   13    7    7 -0.0461581077137    8   12    6    6 -0.0281146617048 
  12   12    7    7 -0.0461581077137   13    9    5    5 -0.0281146617048 
  12   12    6    6 -0.0445243394878    9   13    5    5 -0.0281146617048 
  13   13    5    5 -0.0445243394878   13    9    7    7 -0.0258779979750 
  12   13    6    5 -0.0299765284707    9   13    7    7 -0.0258779979750 
  13   12    5    6 -0.0299765284707   12    8    7    7 -0.0258779979750 
  29   29    7    7 -0.0299524202401    8   12    7    7 -0.0258779979750 
  12    8    6    6 -0.0281146617048 

It.  Correlation Energy T1 Residual T2 Residual CPU Time (s) Walltime (s)
-------------------------------------------------------------------------
  6  -0.307036356271344 4.48288e-05 3.85821e-05        0.197        0.010
  7  -0.307038588147684 1.31051e-05 1.27584e-05        0.193        0.010
  8  -0.307038735358227 5.70080e-06 2.14558e-06        0.192        0.010
  9  -0.307039245317075 1.43078e-06 7.19460e-07        0.193        0.010
 10  -0.307039375603824 5.08874e-07 1.46477e-07        0.193        0.010

   A    I                     A    I                     A    I                  
-------------------------- -------------------------- -------------------------- 
  12    6  0.0306715915653   35    5  0.0122133722256   15    6  0.0074122391037 
  13    5  0.0306715915653   17    7 -0.0112988123720   16    5  0.0074122391037 
   8    6  0.0176682216664   24    6  0.0108764109025   20    4  0.0072450616337 
   9    5  0.0176682216664   25    5  0.0108764109025   26    7 -0.0060856461673 
  36    6  0.0122133722256   10    7  0.0105696904513   29    7  0.0053537075078 

   A    B    I    J                     A    B    I    J                  
------------------------------------ ------------------------------------ 
  13   13    7    7 -0.0460849398426    8   12    6    6 -0.0281332491436 
  12   12    7    7 -0.0460849398426   13    9    5    5 -0.0281332491436 
  12   12    6    6 -0.0445562235069    9   13    5    5 -0.0281332491436 
  13   13    5    5 -0.0445562235069   13    9    7    7 -0.0258439076046 
  12   13    6    5 -0.0299871231823    9   13    7    7 -0.0258439076046 
  13   12    5    6 -0.0299871231823   12    8    7    7 -0.0258439076046 
  29   29    7    7 -0.0299565825927    8   12    7    7 -0.0258439076046 
  12    8    6    6 -0.0281332491436 

It.  Correlation Energy T1 Residual T2 Residual CPU Time (s) Walltime (s)
-------------------------------------------------------------------------
 11  -0.307039424343792 1.30552e-07 4.27565e-08        0.192        0.010
 12  -0.307039433061100 4.00894e-08 1.55316e-08        0.191        0.010

CCSD iterations converged in 12 cycles and 0.131 seconds (0.011 s/it.) at 2.830 Gflops/sec

Total CCSD energy: -113.061204881251683

             _
Formation of H took 0.022 seconds at 2.197 Gflops/sec

Searching for 3 roots in irrep 1

EOMEE-CCSD guess vector:

   A    I                  
-------------------------- 
  10    7  1.0000000000000 

Beginning iterative solution of EOMEE-CCSD equations:

It.  Correlation Energy R1 Residual R2 Residual CPU Time (s) Walltime (s)
-------------------------------------------------------------------------
  1   0.521588738319065 2.22169e-02 6.50944e-02        0.372        0.019
  2   0.449191765559691 5.40285e-02 3.68498e-02        0.235        0.012
  3   0.419154473612882 1.33781e-02 1.17092e-02        0.230        0.012
  4   0.412918289959932 9.29435e-03 2.88425e-03        0.251        0.013
  5   0.411655632536116 5.47663e-03 1.48208e-03        0.276        0.014
  6   0.411017423335481 3.90254e-03 1.17669e-03        0.297        0.015
  7   0.410844182301521 3.20583e-03 5.95266e-04        0.320        0.016
  8   0.410752333605384 3.43984e-03 6.88684e-04        0.345        0.017
  9   0.410687407094977 2.73243e-03 6.31642e-04        0.367        0.018
 10   0.410609449009741 1.93639e-03 4.26091e-04        0.389        0.019
 11   0.410566333119329 6.69032e-04 3.62771e-04        0.416        0.021
Locking on root: 0.410543936731114
 12   0.410543936731114 1.79032e-04 1.53850e-04        0.439        0.022
 13   0.410531655304520 2.13457e-04 1.48710e-04        0.466        0.023
 14   0.410529984960508 4.26426e-05 6.08290e-05        0.481        0.024
 15   0.410529679701827 3.34077e-05 3.45554e-05        0.503        0.025
 16   0.410529759957872 1.26198e-05 1.65852e-05        0.525        0.026
 17   0.410529894224922 5.30841e-06 5.76299e-06        0.547        0.027

EOMEE-CCSD iterations converged in 17 cycles and 0.324 seconds (0.019 s/it.) at 3.310 Gflops/sec

EOMEE-CCSD excitation energy:   0.410529894224922 ( 11.171086348915798 eV)
Total EOMEE-CCSD energy:      -112.650674987026761

Converged root:

   A    I                     A    I                     A    I                  
-------------------------- -------------------------- -------------------------- 
  10    7  0.6307139814150   13    5  0.0745055658338   35    5  0.0101555442922 
  17    7 -0.1365534159589    8    6  0.0500362508462   36    6  0.0101555442922 
  11    7 -0.1355571533540    9    5  0.0500362508462   29    7  0.0088407175824 
  14    7 -0.0766367545339   24    6  0.0214505400475   32    4 -0.0066128672499 
  12    6  0.0745055658339   25    5  0.0214505400475   32    7  0.0063695548036 

   A    B    I    J                     A    B    I    J                  
------------------------------------ ------------------------------------ 
  10   10    7    7 -0.0637720065113   10   17    7    7  0.0398678738916 
  12   10    6    7  0.0607325151458   11   10    7    7  0.0394592740559 
  10   12    7    6  0.0607325151458   10   11    7    7  0.0394592740559 
  13   10    5    7  0.0607325151458   24   10    6    7  0.0350540782022 
  10   13    7    5  0.0607325151458   10   24    7    6  0.0350540782022 
  29   10    7    7 -0.0438780606758   25   10    5    7  0.0350540782022 
  10   29    7    7 -0.0438780606758   10   25    7    5  0.0350540782022 
  17   10    7    7  0.0398678738916 

EOMEE-CCSD guess vector:

   A    I                  
-------------------------- 
  11    7  1.0000000000000 

Beginning iterative solution of EOMEE-CCSD equations:

It.  Correlation Energy R1 Residual R2 Residual CPU Time (s) Walltime (s)
-------------------------------------------------------------------------
  1   0.521371204402100 5.81654e-02 8.66944e-02        0.206        0.010
  2   0.440794568403735 3.92938e-02 1.00442e-02        0.229        0.011
  3   0.433375093973085 9.71902e-03 5.23615e-03        0.252        0.013
  4   0.431143455822208 3.73415e-03 4.16500e-03        0.274        0.014
  5   0.430629554264853 2.42074e-03 1.11775e-03        0.298        0.015
  6   0.430418654035994 1.48369e-03 8.38761e-04        0.320        0.016
  7   0.430368665200238 7.92558e-04 9.54307e-04        0.343        0.017
Locking on root: 0.430354093674471
  8   0.430354093674471 6.19249e-04 4.47420e-04        0.365        0.018
  9   0.430354190640678 2.23020e-04 2.16806e-04        0.390        0.020
 10   0.430347887636546 1.95617e-04 9.13039e-05        0.414        0.021
 11   0.430349979601224 5.16553e-05 3.37971e-05        0.436        0.022
 12   0.430349556165778 4.21723e-05 1.43735e-05        0.457        0.023
 13   0.430350184689562 1.10084e-05 8.31713e-06        0.479        0.024
 14   0.430349827818369 4.41009e-06 4.76489e-06        0.501        0.025

EOMEE-CCSD iterations converged in 14 cycles and 0.249 seconds (0.018 s/it.) at 3.422 Gflops/sec

EOMEE-CCSD excitation energy:   0.430349827818375 ( 11.710414160889794 eV)
Total EOMEE-CCSD energy:      -112.630855053433308

Converged root:

   A    I                     A    I                     A    I                  
-------------------------- -------------------------- -------------------------- 
  11    7 -0.6527377654473   14    7 -0.0553477937789   24    6  0.0198776229945 
  10    7 -0.1305624508922   20    7  0.0526328817796   15    6 -0.0173940996879 
  17    7  0.0733005215120   23    7  0.0308334185029   16    5 -0.0173940996879 
  13    5  0.0559290147400   10    4 -0.0283549076214   14    4 -0.0151400714923 
  12    6  0.0559290147399   25    5  0.0198776229945   17    4  0.0144994892496 

   A    B    I    J                     A    B    I    J                  
------------------------------------ ------------------------------------ 
  11   11    7    7 -0.0870186071269   11   23    7    7  0.0341123230107 
  29   11    7    7  0.0499637618630   11   13    5    7 -0.0315129571452 
  11   29    7    7  0.0499637618630   13   11    7    5 -0.0315129571452 
  13   11    5    7 -0.0460057188907   11   12    6    7 -0.0315129571452 
  11   13    7    5 -0.0460057188907   12   11    7    6 -0.0315129571452 
  12   11    6    7 -0.0460057188907   25   11    5    7 -0.0314139644090 
  11   12    7    6 -0.0460057188907   11   25    7    5 -0.0314139644090 
  23   11    7    7  0.0341123230107 

EOMEE-CCSD guess vector:

   A    I                  
-------------------------- 
   8    6  1.0000000000000 

Beginning iterative solution of EOMEE-CCSD equations:

It.  Correlation Energy R1 Residual R2 Residual CPU Time (s) Walltime (s)
-------------------------------------------------------------------------
  1   0.629208974883544 1.15470e-01 9.50900e-02        0.229        0.011
  2   0.485233392539742 7.40303e-02 1.79722e-02        0.251        0.013
  3   0.432444993764330 6.66517e-02 1.70424e-02        0.275        0.014
  4   0.387109109232302 1.80017e-02 8.41399e-03        0.297        0.015
  5   0.377826203481315 1.37452e-02 5.20682e-03        0.320        0.016
  6   0.375572135043375 2.98778e-03 1.69476e-03        0.344        0.017
  7   0.375344985306635 2.04405e-03 7.18586e-04        0.368        0.018
  8   0.375264026151840 6.55768e-04 2.85907e-04        0.389        0.019
  9   0.375226253329477 5.17280e-04 1.65742e-04        0.411        0.021
Locking on root: 0.375220862846957
 10   0.375220862846957 2.07706e-04 8.39236e-05        0.438        0.022
 11   0.375222331190475 9.35242e-05 3.16804e-05        0.459        0.023
 12   0.375222208869677 3.80773e-05 1.57401e-05        0.482        0.024
 13   0.375221574433706 2.56581e-05 6.09465e-06        0.571        0.029
 14   0.375221421607724 4.73315e-06 3.00468e-06        0.691        0.035

EOMEE-CCSD iterations converged in 14 cycles and 0.277 seconds (0.020 s/it.) at 3.305 Gflops/sec

EOMEE-CCSD excitation energy:   0.375221421607719 ( 10.210293963260691 eV)
Total EOMEE-CCSD energy:      -112.685983459643964

Converged root:

   A    I                     A    I                     A    I                  
-------------------------- -------------------------- -------------------------- 
  13    5 -0.3600055062630   16    5 -0.1018880769341   31    5 -0.0174517966372 
  12    6  0.3600021235134   25    5 -0.0487269955673   30    6  0.0174517033965 
   8    6  0.2899833207052   24    6  0.0487265880078   18    7  0.0127132728884 
   9    5 -0.2899609132829   21    6  0.0426444001921   33    7 -0.0080289104270 
  15    6  0.1019015708997   22    5 -0.0426429193144   35    5  0.0075929348340 

   A    B    I    J                     A    B    I    J                  
------------------------------------ ------------------------------------ 
  13   13    5    5  0.0820454916903    8    8    6    6 -0.0435355012937 
  12   12    6    6 -0.0820448393253    9    9    5    5  0.0435279957769 
  12    8    6    6 -0.0558969415835   13    9    7    7 -0.0318232117010 
   8   12    6    6 -0.0558969415835    9   13    7    7 -0.0318232117010 
  13    9    5    5  0.0558952407965   12    8    7    7  0.0318216535024 
   9   13    5    5  0.0558952407965    8   12    7    7  0.0318216535024 
  12   12    7    7  0.0447536804902   16   13    5    5  0.0318090570657 
  13   13    7    7 -0.0447528908194 

Searching for 2 roots in irrep 2

EOMEE-CCSD guess vector:

   A    I                  
-------------------------- 
   9    7  1.0000000000000 

Beginning iterative solution of EOMEE-CCSD equations:

It.  Correlation Energy R1 Residual R2 Residual CPU Time (s) Walltime (s)
-------------------------------------------------------------------------
  1   0.478424731472789 3.37031e-02 6.69183e-02        0.180        0.009
  2   0.413105075546529 1.13093e-01 2.23106e-02        0.204        0.010
  3   0.361049632356627 4.09192e-02 1.43587e-02        0.230        0.012
  4   0.328966020783784 3.05035e-02 1.04731e-02        0.247        0.012
  5   0.320970313089769 9.90271e-03 2.63094e-03        0.269        0.013
  6   0.319071096500274 4.24211e-03 1.57255e-03        0.291        0.015
  7   0.318681203118912 1.75145e-03 6.33365e-04        0.313        0.016
Locking on root: 0.318669131672695
  8   0.318669131672695 5.33990e-04 3.69485e-04        0.335        0.017
  9   0.318642096823109 3.16197e-04 1.48314e-04        0.357        0.018
 10   0.318647176934480 1.17026e-04 6.49584e-05        0.378        0.019
 11   0.318647765333995 7.73404e-05 4.21835e-05        0.401        0.020
 12   0.318648894450471 2.48520e-05 2.15633e-05        0.423        0.021
 13   0.318647727328369 9.97029e-06 6.04013e-06        0.446        0.022

EOMEE-CCSD iterations converged in 13 cycles and 0.204 seconds (0.016 s/it.) at 2.920 Gflops/sec

EOMEE-CCSD excitation energy:   0.318647727328369 (  8.670845477870895 eV)
Total EOMEE-CCSD energy:      -112.742557153923315

Converged root:

   A    I                     A    I                     A    I                  
-------------------------- -------------------------- -------------------------- 
   9    7  0.4644748185513    9    4  0.0517764092966   25    4  0.0220255453305 
  13    7  0.4578019208921   25    7  0.0502287924865   31    7  0.0218133243287 
  16    7  0.1442785997976   16    4  0.0226036768989   22    4  0.0206405067596 
  13    4  0.0932088273720   18    5 -0.0223417733656   11    5 -0.0192522294341 
  22    7  0.0527244860919   19    6 -0.0223417733656   20    5  0.0180019693094 

   A    B    I    J                     A    B    I    J                  
------------------------------------ ------------------------------------ 
   9   13    7    5  0.0356574924817    9   29    7    7 -0.0283511183050 
  13    9    5    7  0.0356574924817   29    9    7    7 -0.0283511183050 
  13   13    5    4 -0.0339502791372   12    9    6    7  0.0280379581071 
  13   13    4    5 -0.0339502791372    9   12    7    6  0.0280379581071 
   9   13    4    5 -0.0289083330236    9   13    5    4 -0.0267972683454 
  13    9    5    4 -0.0289083330236   13    9    4    5 -0.0267972683454 
  13    9    7    5  0.0286544563586   13   20    7    7  0.0233164538670 
   9   13    5    7  0.0286544563586 

EOMEE-CCSD guess vector:

   A    I                  
-------------------------- 
  13    7  1.0000000000000 

Beginning iterative solution of EOMEE-CCSD equations:

It.  Correlation Energy R1 Residual R2 Residual CPU Time (s) Walltime (s)
-------------------------------------------------------------------------
  1   0.615634025301938 9.51938e-01 3.44466e-02        0.203        0.010
  2   0.486583900786757 6.55486e-02 2.45096e-02        0.225        0.011
  3   0.444866036389381 1.41612e-02 5.42608e-03        0.247        0.012
  4   0.442025621503464 1.27548e-02 2.59945e-03        0.269        0.013
  5   0.440915757685694 5.06382e-03 1.39069e-03        0.293        0.015
  6   0.440518332520734 3.88154e-03 1.37464e-03        0.313        0.016
  7   0.440123137915654 1.62197e-03 7.41037e-04        0.337        0.017
  8   0.440025002443255 7.37849e-04 5.81774e-04        0.383        0.019
Locking on root: 0.440014175197891
  9   0.440014175197891 4.45903e-04 2.78053e-04        0.381        0.019
 10   0.440012251506866 3.32997e-04 1.37143e-04        0.403        0.020
 11   0.440008660879735 1.89330e-04 8.83110e-05        0.425        0.021
 12   0.440011099317248 1.03048e-04 3.29035e-05        0.446        0.022
 13   0.440009858491886 6.65157e-05 1.92336e-05        0.467        0.023
 14   0.440009105005860 3.86859e-05 1.28070e-05        0.489        0.024
 15   0.440009271911869 1.08410e-05 9.42869e-06        0.514        0.026
 16   0.440008822124813 1.07767e-05 3.30195e-06        0.537        0.027
 17   0.440009054084715 2.84765e-06 1.57680e-06        0.559        0.028

EOMEE-CCSD iterations converged in 17 cycles and 0.325 seconds (0.019 s/it.) at 2.996 Gflops/sec

EOMEE-CCSD excitation energy:   0.440009054084712 ( 11.973255070170426 eV)
Total EOMEE-CCSD energy:      -112.621195827166972

Converged root:

   A    I                     A    I                     A    I                  
-------------------------- -------------------------- -------------------------- 
  13    7  0.4741962880356   22    7  0.0412780785051   25    4  0.0111719070382 
   9    7 -0.4675947955722   16    7 -0.0401128028845   31    7  0.0104180726908 
  25    7  0.0823264626332   10    5 -0.0388249124112   16    4  0.0087261349902 
  13    4  0.0794859456359   17    5  0.0123146680459   22    4  0.0071087318677 
   9    4  0.0512820240051    9    3 -0.0114522274694   18    5 -0.0057046843491 

   A    B    I    J                     A    B    I    J                  
------------------------------------ ------------------------------------ 
   9   12    7    6 -0.0489664855173   13   13    5    4 -0.0340568889335 
  12    9    6    7 -0.0489664855173   13   13    4    5 -0.0340568889335 
  13    9    5    7 -0.0437884309985    9   10    7    7  0.0331660184603 
   9   13    7    5 -0.0437884309985   10    9    7    7  0.0331660184603 
   9   11    7    7 -0.0424279611161   25    9    5    7 -0.0315876795311 
  11    9    7    7 -0.0424279611161    9   25    7    5 -0.0315876795311 
   9   29    7    7  0.0421204954741    9   23    7    7  0.0307840219860 
  29    9    7    7  0.0421204954741 

Searching for 2 roots in irrep 4

EOMEE-CCSD guess vector:

   A    I                  
-------------------------- 
   9    6  1.0000000000000 

Beginning iterative solution of EOMEE-CCSD equations:

It.  Correlation Energy R1 Residual R2 Residual CPU Time (s) Walltime (s)
-------------------------------------------------------------------------
  1   0.597957191740710 5.11042e-02 5.03544e-02        0.173        0.009
  2   0.510039084530172 1.38860e-01 2.45005e-02        0.199        0.010
  3   0.436582522990768 5.09271e-02 1.30198e-02        0.221        0.011
  4   0.384644145739081 3.22712e-02 8.23004e-03        0.244        0.012
  5   0.375194948902825 1.53456e-02 2.94427e-03        0.265        0.013
  6   0.373129360114282 2.93290e-03 9.46913e-04        0.287        0.014
  7   0.372925014850045 1.67027e-03 5.68272e-04        0.309        0.015
Locking on root: 0.372900636076600
  8   0.372900636076600 1.56029e-03 4.39262e-04        0.332        0.017
  9   0.372787085580090 1.79953e-03 9.18433e-04        0.354        0.018
 10   0.372365010235406 3.56563e-03 2.75229e-03        0.375        0.019
 11   0.371399169185889 2.41588e-03 1.82935e-03        0.400        0.020
 12   0.371033674150852 1.02756e-03 4.91846e-04        0.422        0.021
 13   0.371015696567369 8.74127e-04 2.64406e-04        0.445        0.022
 14   0.371012145960861 1.61614e-04 9.34423e-05        0.469        0.023
 15   0.371012587504096 1.32192e-04 2.72452e-05        0.490        0.024
 16   0.371010684136797 1.55202e-05 1.08396e-05        0.513        0.026
 17   0.371011278366577 1.11216e-05 4.70362e-06        0.534        0.027
 18   0.371011283584867 1.52208e-06 1.37775e-06        0.557        0.028

EOMEE-CCSD iterations converged in 18 cycles and 0.330 seconds (0.018 s/it.) at 3.233 Gflops/sec

EOMEE-CCSD excitation energy:   0.371011283584863 ( 10.095730283353843 eV)
Total EOMEE-CCSD energy:      -112.690193597666820

Converged root:

   A    I                     A    I                     A    I                  
-------------------------- -------------------------- -------------------------- 
  12    5 -0.3624760275936   16    6  0.1113054661090   30    5 -0.0202536015486 
  13    6  0.3624743761937   25    6  0.0495815488025   31    6  0.0202534362005 
   8    5 -0.2925897950235   24    5 -0.0495807637909   36    5  0.0119942319459 
   9    6  0.2925853083836   21    5 -0.0488497975702   35    6 -0.0119938886429 
  15    5 -0.1113067878702   22    6  0.0488481910136   37    5 -0.0068832861320 

   A    B    I    J                     A    B    I    J                  
------------------------------------ ------------------------------------ 
  12   12    6    5  0.0346178464292   12    9    5    5  0.0245548157954 
  12   12    5    6  0.0346178464292    9   12    5    5  0.0245548157954 
  12   13    5    5  0.0346177566190    8   13    6    6 -0.0245546823242 
  13   12    5    5  0.0346177566190   13    8    6    6 -0.0245546823242 
  12   13    6    6 -0.0346176897793    8   12    6    5  0.0237229921663 
  13   12    6    6 -0.0346176897793   12    8    5    6  0.0237229921663 
  13   13    6    5 -0.0346175999691    9   13    5    6 -0.0237219887637 
  13   13    5    6 -0.0346175999691 

EOMEE-CCSD guess vector:

   A    I                  
-------------------------- 
   8    5  1.0000000000000 

Beginning iterative solution of EOMEE-CCSD equations:

It.  Correlation Energy R1 Residual R2 Residual CPU Time (s) Walltime (s)
-------------------------------------------------------------------------
  1   0.643267284661011 2.00437e-01 5.08500e-02        0.197        0.010
  2   0.481253144457904 7.77310e-02 1.04905e-02        0.221        0.011
  3   0.417814373696257 6.41538e-02 8.53809e-03        0.242        0.012
  4   0.383153354183228 1.94711e-02 6.40336e-03        0.266        0.013
  5   0.376468468817300 9.71490e-03 2.16608e-03        0.288        0.014
  6   0.375308601914355 3.48818e-03 6.18919e-04        0.309        0.015
  7   0.375248005054208 7.11543e-04 4.26194e-04        0.333        0.017
Locking on root: 0.375227633843141
  8   0.375227633843141 5.12286e-04 1.58857e-04        0.352        0.018
  9   0.375218359340551 1.47746e-04 5.12490e-05        0.377        0.019
 10   0.375219347088065 5.03568e-05 4.13932e-05        0.405        0.020
 11   0.375221239281815 1.95722e-05 1.65317e-05        0.421        0.021
 12   0.375221229403561 3.76409e-06 4.42545e-06        0.443        0.022

EOMEE-CCSD iterations converged in 12 cycles and 0.193 seconds (0.016 s/it.) at 3.136 Gflops/sec

EOMEE-CCSD excitation energy:   0.375221229403564 ( 10.210288733119743 eV)
Total EOMEE-CCSD energy:      -112.685983651848119

Converged root:

   A    I                     A    I                     A    I                  
-------------------------- -------------------------- -------------------------- 
  13    6  0.3600006610446   15    5  0.1018771818476   31    6  0.0174504717508 
  12    5  0.3599975744373   25    6  0.0487226917143   30    5  0.0174483470857 
   9    6  0.2899923078908   24    5  0.0487199702858   19    7 -0.0127104507627 
   8    5  0.2899758977054   22    6  0.0426355253795   34    7  0.0080282505980 
  16    6  0.1018878841238   21    5  0.0426305507555   35    6 -0.0075934752765 

   A    B    I    J                     A    B    I    J                  
------------------------------------ ------------------------------------ 
  12   13    7    7  0.0447466602808   13   13    6    5 -0.0406392540367 
  13   12    7    7  0.0447466602808   13   13    5    6 -0.0406392540367 
  12   13    5    5 -0.0414049487329    8   13    7    7  0.0318265416999 
  13   12    5    5 -0.0414049487329   13    8    7    7  0.0318265416999 
  12   13    6    6 -0.0414047224648   12    9    7    7  0.0318233849413 
  13   12    6    6 -0.0414047224648    9   12    7    7  0.0318233849413 
  12   12    6    5 -0.0406394803047   12    9    5    5 -0.0304282115766 
  12   12    5    6 -0.0406394803047 

 @CHECKOUT-I, Total execution time (CPU/WALL):       43.32/       2.31 seconds.
--executable xncc finished with status     0 in        2.86 seconds (walltime).
  The final electronic energy is      -112.685983651848119 a.u. 
  This computation required                            8.99 seconds (walltime).
