 --invoking executable--
/home/CEISAM/blondel-a/soft/cfour2.1/cfour2.1-serial-mkl/bin/xjoda


   *************************************************************************
         <<<     CCCCCC     CCCCCC   |||     CCCCCC     CCCCCC   >>>
       <<<      CCC        CCC       |||    CCC        CCC         >>>
      <<<      CCC        CCC        |||   CCC        CCC            >>>
    <<<        CCC        CCC        |||   CCC        CCC              >>>
      <<<      CCC        CCC        |||   CCC        CCC            >>>
       <<<      CCC        CCC       |||    CCC        CCC         >>>
         <<<     CCCCCC     CCCCCC   |||     CCCCCC     CCCCCC   >>>
   *************************************************************************

     ****************************************************************
     * CFOUR Coupled-Cluster techniques for Computational Chemistry *
     ****************************************************************
 

   Department of Chemistry                Institut fuer Physikalische Chemie
   University of Florida                  Universitaet Mainz
   Gainesville, FL 32611, USA             D-55099 Mainz, Germany

   Department of Chemistry                Fakultaet fuer Chemie und Biowiss.
   Johns Hopkins University               Karlsruher Institut fuer Technologie
   Baltimore, MD 21218, USA               D-76131 Karlsruhe, Germany

   Department of Chemistry                Department of Physical Chemistry
   Southern Methodist University          Eotvos Lorand University
   Dallas, TX 75275, USA                  H-1053 Budapest, Hungary

 
                       Version 2.1
 
                     cribbar055                                        
                     Tue Mar 16 12:56:38 CET 2021                      
                     integer*8 version is running
 
********************************************************************************
*                          Input from ZMAT file                                *
********************************************************************************
Ketene -GS                                                                      
S    0.0000000000            0.0000000000           -0.5036508625               
H    0.0000000000            1.8182810536            1.2521228828               
H    0.0000000000           -1.8182810536            1.2521228828               
                                                                                
*CFOUR(COORD=CARTESIAN,UNITS=BOHR                                               
       MEMORY=250,MEM_UNIT=GB,CC_PROG=NCC                                       
       FROZEN_CORE=1                                                            
       CALC=CCSDTQ,BASIS=AUG-PVDZ                                               
       SCF_CONV=8,CC_CONV=7,ESTATE_CONV=5,ESTATE_MAXCYC=120                     
       EXCITE=EOMEE,ESTATE_SYM=0/1/0/1)                                         
                                                                                
********************************************************************************
    -------------------------------------------------------------------
                    CFOUR Control Parameters 
    -------------------------------------------------------------------
        External           Internal           Value            Units
          Name               Name
    -------------------------------------------------------------------
       ABCDTYPE             IABCDT         STANDARD    [  0]    ***   
       ANHARMONIC           IANHAR         OFF         [  0]    ***   
       ANH_ALGORIT          IANALG         STANDARD    [  0]    ***   
       ANH_DERIVAT          IANDER         SECOND      [  1]    ***   
       ANH_MODE             ANHMOD         VIBRATION   [  0]    ***   
       ANH_STEPSIZ          ICUBST             50000          x 10-6  
       ANH_SYMMETR          IANHSM         ABELIAN     [  0]    ***   
       AO_LADDERS           IAOLAD         SINGLEPASS  [  1]    ***   
       AV_SCF               IAVSCF         OFF         [  0]    ***   
       BASIS                IBASIS         AUG-PVDZ    [ 33]    ***   
       BOTHVECTORS          BOTHVC         OFF         [  0]    ***   
       BOX_POTENT           IPIAB          OFF         [  0]    ***   
       BREIT                IBREIT         OFF         [  0]    ***   
       BRUCK_CONV           IBRTOL          10D-  4             ***   
       BRUECKNER            IBRKNR         OFF         [  0]    ***   
       BUFFERSIZE           IBUFFS              4096            ***   
       CACHE_RECS           ICHREC             10               ***   
       CALCLEVEL            ICLLVL         CCSDTQ      [ 46]    ***   
       CCORBOPT             ICCORB         OFF         [  0]  x 0.01  
       CC_CONV              ICCCNV          10D-  7             ***   
       CC_EXPORDER          ICCEOR              5               ***   
       CC_EXTRAPOL          ICCEXT         DIIS        [  1]    ***   
       CC_GUESS             ICCGES         MP2         [  0]    ***   
       CC_MAXCYC            ICCCYC            100              cycles 
       CC_PROGRAM           ICCPRO         NCC         [  5]    ***   
       CHARGE               ICHRGE              0               ***   
       CHOLESKY             ICHOLE         OFF         [  0]    ***   
       CIS_CONV             ICISTL              5               ***   
       COMM_SIZE            IPSIZE            ***               ***   
       CONSTANT             ICONST         OLD         [  1]    ***   
       CONTINUUM            ICONTU         NONE        [  0]    ***   
       CONTRACTION          ICNTYP         GENERAL     [  1]    ***   
       COORDINATES          ICOORD         CARTESIAN   [  1]    ***   
       CPHF_CONVER          ICPHFT          10D- 16             ***   
       CPHF_MAXCYC          ICPHFC             64              cycles 
       CUBIC                ICUBIC         OFF         [  0]    ***   
       CURVILINEAR          ICURVY         OFF         [  0]    ***   
       DBOC                 IDBOC          OFF         [  0]    ***   
       DCT                  IDCT           OFF         [  0]    ***   
       DERIV_LEV            IDRLVL         ZERO        [  0]    ***   
       DEVMEM_SIZE          IDVMEM         *********           MByte  
       DIAG_MRCC            IEOMST          10D-  0             ***   
       DIFF_TYPE            IDIFTY         RELAXED     [  0]    ***   
       DIRECT               IDIRCT         OFF         [  0]    ***   
       DROPMO               IDRPMO      NONE         
       ECP                  IECP           OFF         [  0]    ***   
       EIGENVECTOR          IVEC                1               ***   
       EL_ANHARM            IELANH         OFF         [  0]    ***   
       EOMFOLLOW            IEOMSR         ENERGY      [  0]    ***   
       EOMIP                IEOMIP         OFF         [  0]    ***   
       EOMLEVEL             HBARFM         SAME        [  0]    ***   
       EOM_MRCC             IMRCCE         NEW         [  1]    ***   
       EOM_NONIT            EOMNON         OFF         [  0]    ***   
       EOM_NSING            IEOMSI          10D-  0             ***   
       EOM_NSTATES          IMRCCD         DAVIDSON    [  0]    ***   
       EOM_NTRIP            IEOMTR          10D-  0             ***   
       EOM_ORDER            IEXORD         ENERGY      [  0]    ***   
       EOM_PROPSTA          IEOMST              0               ***   
       ESTATE_CONV          IEXTOL          10D-  5             ***   
       ESTATE_DIAG          IEXDIG         ITERATIVE   [  0]    ***   
       ESTATE_LOCK          IESLOC         ON          [  1]    ***   
       ESTATE_MAXC          IEXMXC            120               ***   
       ESTATE_PROP          IEXPRP         OFF         [  0]    ***   
       ESTATE_SYM           IEXSYM   0,  1,  0,  1,
       EVAL_HESS            IRECAL              0            # of cyc.
       EXCITATION           IEXCIT              0               ***   
       EXCITE               IEXCIT         EOMEE       [  3]    ***   
       EXTERN_POT           IEXPOT         OFF         [  0]    ***   
       FCGRADNEW            IFCGNW         OFF         [  0]    ***   
       FC_FIELD             IFINFC              0             x 10-6  
       FD_CALTYPE           IFDCAL         GRADONLY    [  0]    ***   
       FD_PROJECT           IFDPRJ         OFF         [  1]    ***   
       FD_STEPSIZE          IDISFD              0            10-4 bohr
       FD_USEGROUP          IFDGRP         FULL        [  0]    ***   
       FILE_RECSIZ          IFLREC              4096           words  
       FINITE_PERT          IFIPER              0             x 10-6  
       FIXGEOM              IFIXGM         OFF         [  0]    ***   
       FOCK                 IFOCK          AO          [  1]    ***   
       FREQ_ALGORI          IVIALG         STANDARD    [  0]    ***   
       FROZEN_CORE          IFROCO         ON          [  1]    ***   
       GAMMA_ABCD           IGABCD         STORE       [  0]    ***   
       GAMMA_ABCI           IGABCI         STORE       [  0]    ***   
       GENBAS_1             IGNBS1              0               ***   
       GENBAS_2             IGNBS2              0               ***   
       GENBAS_3             IGNBS3              0               ***   
       GENBAS_4             IGNBS4              0               ***   
       GEO_CONV             ICONTL              5              H/bohr 
       GEO_MAXCYC           IOPTCY             50               ***   
       GEO_MAXSTEP          IMXSTP            300            millibohr
       GEO_METHOD           INR            SINGLE_POINT[  5]    ***   
       GIAO                 IGIAO          OFF         [  1]    ***   
       GIMIC                IGIMIC         OFF         [  0]    ***   
       GRID                 IGRID          OFF         [  0]    ***   
       GRID_ALGO            IGALGO         SERIAL      [  0]    ***   
       GUESS                IGUESS         MOREAD      [  0]    ***   
       HBAR                 IHBAR          ON          [  1]    ***   
       HESS_TYPE            IHESTP         SCF         [  0]    ***   
       HF2_FILE             IHF2Fl         USE         [  1]    ***   
       HFSTABILITY          ISTABL         OFF         [  0]    ***   
       INCORE               INCORE         OFF         [  0]    ***   
       INPUT_MRCC           IMRCC          ON          [  1]    ***   
       INTEGRALS            INTTYP         VMOL        [  1]    ***   
       JODA_PRINT           IJPRNT              0               ***   
       KEYWORD_OUT          IDMPKW         NO          [  0]    ***   
       LINDEP_TOL           ILINDP              8               ***   
       LINEQ_CONV           IZTACN          10D-  7           cycles  
       LINEQ_EXPOR          ILMAXD              5               ***   
       LINEQ_MAXCY          ILMAXC            100               ***   
       LINEQ_TYPE           ILTYPE         DIIS        [  1]    ***   
       LOCK_ORBOCC          ILOCOC         OFF         [  0]    ***   
       MEMORY_SIZE          IMEMSZ         *********           words  
       MEM_UNIT             IMEMU          GB          [  3]    ***   
       MRCC                 IMRCCC         OFF         [  0]    ***   
       MULTIPLICTY          IMULTP              1               ***   
       NACOUPLING           IVCOUP         OFF         [  0]    ***   
       NEGEVAL              IDIE           ABORT       [  0]    ***   
       NEWNORM              INEWNO         OFF         [  0]    ***   
       NON-HF               INONHF         OFF         [  0]    ***   
       NTOP_TAMP            ITOPT2             15               ***   
       NUC_MODEL            INUCMO         POINT       [  0]    ***   
       OCCUPATION           IOCCU   ESTIMATED BY SCF 
       OPEN-SHELL           IOPEN          SPIN-ORBITAL[  0]    ***   
       OPTVIB               IOPTVB         OFF         [  0]    ***   
       ORBITALS             IORBTP         STANDARD    [  0]    ***   
       PARALLEL             IPARAL         ON          [  1]    ***   
       PARA_INT             IPINTS         ON          [  1]    ***   
       PARA_PRINT           IPPRIN              0               ***   
       PERT_ORB             IPTORB         STANDARD    [  0]    ***   
       POINTS               IGRDFD              0               ***   
       PRINT                IPRNT               0               ***   
       PROPS                IPROPS         OFF         [  0]    ***   
       PROP_INTEGR          IINTYP         INTERNAL    [  0]    ***   
       PSI                  IPSI           OFF         [  0]    ***   
       QC_ALG               IQCALG         FLM         [  0]    ***   
       QC_LINALG            IQCLIN         TRIDIAG     [  2]    ***   
       QC_MAXCYC            IQCMAX          10D-100           cycles  
       QC_MAXSCFCY          IQCMSC          10D- 15           cycles  
       QC_RTRUST            IQCRTR          10D-  0           x 10-3  
       QC_SKIPSCF           IQCSKI         OFF         [  0]    ***   
       QC_START             IQCSTA          10D-  1             ***   
       QRHFGUESS            IQGUES         OFF         [  0]    ***   
       QUARTIC              IQUART         OFF         [  0]    ***   
       RAMAN_INT            IRAMIN         OFF         [  0]    ***   
       RAMAN_ORB            IRAMRE         UNRELAXED   [  0]    ***   
       RDO                  IRDOFM         OFF         [  0]    ***   
       REDUCE_REPR          REDREP         Ir          [  0]    ***   
       REFERENCE            IREFNC         RHF         [  0]    ***   
       RELATIVIST           IRELAT         OFF         [  0]    ***   
       RELAX_DENS           IRDENS         OFF         [  0]    ***   
       RESET_FLAGS          IRESET         OFF         [  0]    ***   
       RESTART_CC           ICCRES         OFF         [  0]    ***   
       ROT_EVEC             ROTVEC              0               ***   
       SAVE_INTS            ISVINT         OFF         [  0]    ***   
       SCALE_ON             ISTCRT              0               ***   
       SCF_CONV             ISCFCV          10D-  8             ***   
       SCF_DAMPING          IDAMP               0             x 10-3  
       SCF_EXPORDE          IRPPOR              6               ***   
       SCF_EXPSTAR          IRPPLS              8               ***   
       SCF_EXTRAPO          IRPP           ON          [  1]    ***   
       SCF_MAXCYC           ISCFCY            150              cycles 
       SCF_NOSTOP           ISCFST         OFF         [  0]    ***   
       SCF_PRINT            ISCFPR              0               ***   
       SCF_PROG             ISCFPR         SCF         [  0]    ***   
       SD_FIELD             IFINSD              0             x 10-6  
       SOPERT               IPERSO         OFF         [  0]    ***   
       SPHERICAL            IDFGHI         ON          [  1]    ***   
       SPINORBIT            ISOCAL         OFF         [  0]    ***   
       SPINROTATIO          ISRCON         OFF         [  0]    ***   
       SPIN_FLIP            ISPFLP         OFF         [  0]    ***   
       SPIN_ORBIT           ISPORB         OFF         [  0]    ***   
       SPIN_SCAL            ISCSMP         OFF         [  0]    ***   
       STEEPSCALE           ISTPSC              1000          x 10-3  
       SUBGROUP             ISUBGP         DEFAULT     [  0]    ***   
       SUBGRPAXIS           ISBXYZ         X           [  0]    ***   
       SYMMETRY             ISYM           ON          [  0]    ***   
       SYM_CHECK            ISYMCK         OVERRIDE    [  1]    ***   
       T3_EXTRAPOL          IT3EXT         ON          [  1]    ***   
       T4_EXTRAPOL          IT4EXP         OFF         [  0]    ***   
       TAMP_SUM             IEVERY              5               ***   
       TESTSUITE            ITESTS         OFF         [  0]    ***   
       THERMOCH             ITHERM         OFF         [  0]    ***   
       TOL_CHOLESK          ITOLCH          10D-  4             ***   
       TRANGRAD             IRESRM         OFF         [  0]    ***   
       TRANS_INV            ITRAIN         USE         [  0]    ***   
       TREAT_PERT           ITREAT         SIMULTANEOUS[  0]    ***   
       TRIP_ALGORI          ITRALG         NORMAL      [  0]    ***   
       UIJ_THRESHO          IUIJTH              1               ***   
       UNITS                IUNITS         BOHR        [  1]    ***   
       UNOS                 IUNOS          OFF         [  0]    ***   
       UPDATE_HESS          IHUPDT         ON          [  1]    ***   
       VIBPHASE             ISETPH         STANDARD    [  0]    ***   
       VIBRATION            IVIB           NO          [  0]    ***   
       VIB_ALGORIT          IGEALG         STANDARD    [  0]    ***   
       VNATORB              IVNORB         OFF         [  0]    ***   
       VTRAN                IVTRAN         FULL/PARTIAL[  0]    ***   
       XFIELD               IXEFLD              0             x 10-6  
       XFORM_TOL            IXFTOL          10D- 11             ***   
       YFIELD               IYEFLD              0             x 10-6  
       ZFIELD               IZEFLD              0             x 10-6  
       ZSCALE_EXP           IZEXPS         OFF         [  0]    ***   
    -------------------------------------------------------------------
  @GETXYZ-I,     3 atoms read from ZMAT.
   Rotational constants (in cm-1): 
          4.8124145846             9.0335261580            10.2989632655
   Rotational constants (in MHz): 
     144272.5799367765        270818.3390724506        308755.1944770041
********************************************************************************
   The full molecular point group is C2v .
   The largest Abelian subgroup of the full molecular point group is C2v .
   The computational point group is C2v .
********************************************************************************


 ----------------------------------------------------------------
         Coordinates used in calculation (QCOMP) 
 ----------------------------------------------------------------
 Z-matrix   Atomic            Coordinates (in bohr)
  Symbol    Number           X              Y              Z
 ----------------------------------------------------------------
     S        16         0.00000000     0.00000000    -0.10412659
     H         1         0.00000000     1.81828105     1.65164716
     H         1         0.00000000    -1.81828105     1.65164716
 ----------------------------------------------------------------
 
   Interatomic distance matrix (Angstroms) 
 
                 S             H             H    
                [ 1]        [ 2]        [ 3]
  S    [ 1]     0.00000
  H    [ 2]     1.33756     0.00000
  H    [ 3]     1.33756     1.92439     0.00000
 rotcon2
   Rotational constants (in cm-1): 
          4.8124145846            10.2989632655             9.0335261580
   Rotational constants (in MHz): 
     144272.5799367765        308755.1944770041        270818.3390724506
  There are   5 frozen-core orbitals.
  There are   45 basis functions.
 @GEOPT-W, Archive file not created for single-point calculation.
 @CHECKOUT-I, Total execution time (CPU/WALL):        0.18/       6.79 seconds.
--executable xjoda finished with status     0 in        9.11 seconds (walltime).
 --invoking executable--
/home/CEISAM/blondel-a/soft/cfour2.1/cfour2.1-serial-mkl/bin/xvmol
 SERIAL VERSION OF MOLECULE STARTED
********************************************************************************
                    INPUT FROM MOL FILE
********************************************************************************
INTGRL        1    0    1    0    0    0    0    0    0                         
         *** CFOUR Program System (Release V0.1) ***                            
Ketene -GS                                                                      
    2    2 X  Y       0.10E-08              0    0                              
   9999.00      3.00                                                            
         16.00000000    1    3    1    1    1                                   
S #1   0.000000000000000   0.000000000000000  -0.104126590204952                
   13    5                                                                      
   110800.000000000       2.476400000000000E-004 -6.870000000000000E-005        
  1.991000000000000E-005  0.000000000000000E+000  0.000000000000000E+000        
   16610.0000000000       1.920260000000000E-003 -5.276800000000000E-004        
  1.534800000000000E-004  0.000000000000000E+000  0.000000000000000E+000        
   3781.00000000000       9.961920000000001E-003 -2.796710000000000E-003        
  8.095000000000000E-004  0.000000000000000E+000  0.000000000000000E+000        
   1071.00000000000       4.029750000000000E-002 -1.126510000000000E-002        
  3.289740000000000E-003  0.000000000000000E+000  0.000000000000000E+000        
   349.800000000000       0.128604000000000      -3.888340000000000E-002        
  1.129670000000000E-002  0.000000000000000E+000  0.000000000000000E+000        
   126.300000000000       0.303480000000000      -9.950249999999999E-002        
  2.963850000000000E-002  0.000000000000000E+000  0.000000000000000E+000        
   49.2600000000000       0.421432000000000      -0.199740000000000             
  5.998510000000000E-002  0.000000000000000E+000  0.000000000000000E+000        
   20.1600000000000       0.230781000000000      -0.123360000000000             
  4.132480000000000E-002  0.000000000000000E+000  0.000000000000000E+000        
   5.72000000000000       1.789710000000000E-002  0.513194000000000             
 -0.207474000000000       0.000000000000000E+000  0.000000000000000E+000        
   2.18200000000000      -2.975160000000000E-003  0.607120000000000             
 -0.392889000000000       0.000000000000000E+000  0.000000000000000E+000        
  0.432700000000000       8.495200000000000E-004  3.967530000000000E-002        
  0.632840000000000       0.000000000000000E+000  0.000000000000000E+000        
  0.157000000000000      -3.679400000000000E-004 -9.468640000000000E-003        
  0.556924000000000        1.00000000000000       0.000000000000000E+000        
  5.070000000000000E-002  0.000000000000000E+000  0.000000000000000E+000        
  0.000000000000000E+000  0.000000000000000E+000   1.00000000000000             
    9    4                                                                      
   399.700000000000       4.475410000000000E-003 -1.162510000000000E-003        
  0.000000000000000E+000  0.000000000000000E+000                                
   94.1900000000000       3.417080000000000E-002 -8.656640000000000E-003        
  0.000000000000000E+000  0.000000000000000E+000                                
   29.7500000000000       0.144250000000000      -3.908860000000000E-002        
  0.000000000000000E+000  0.000000000000000E+000                                
   10.7700000000000       0.353928000000000      -9.346250000000000E-002        
  0.000000000000000E+000  0.000000000000000E+000                                
   4.11900000000000       0.459085000000000      -0.147994000000000             
  0.000000000000000E+000  0.000000000000000E+000                                
   1.62500000000000       0.206383000000000       3.019040000000000E-002        
  0.000000000000000E+000  0.000000000000000E+000                                
  0.472600000000000       1.021410000000000E-002  0.561573000000000             
  0.000000000000000E+000  0.000000000000000E+000                                
  0.140700000000000      -6.031000000000000E-005  0.534776000000000             
   1.00000000000000       0.000000000000000E+000                                
  3.990000000000000E-002  0.000000000000000E+000  0.000000000000000E+000        
  0.000000000000000E+000   1.00000000000000                                     
    2    2                                                                      
  0.479000000000000        1.00000000000000       0.000000000000000E+000        
  0.152000000000000       0.000000000000000E+000   1.00000000000000             
          1.00000000    1    2    1    1                                        
H #2   0.000000000000000   1.818281053600000   1.651647155095048                
    5    3                                                                      
   13.0100000000000       1.968500000000000E-002  0.000000000000000E+000        
  0.000000000000000E+000                                                        
   1.96200000000000       0.137977000000000       0.000000000000000E+000        
  0.000000000000000E+000                                                        
  0.444600000000000       0.478148000000000       0.000000000000000E+000        
  0.000000000000000E+000                                                        
  0.122000000000000       0.501240000000000        1.00000000000000             
  0.000000000000000E+000                                                        
  2.974000000000000E-002  0.000000000000000E+000  0.000000000000000E+000        
   1.00000000000000                                                             
    2    2                                                                      
  0.727000000000000        1.00000000000000       0.000000000000000E+000        
  0.141000000000000       0.000000000000000E+000   1.00000000000000             
FINISH                                                                          
 
********************************************************************************
 ONE- AND TWO-ELECTRON INTEGRALS OVER SYMMETRY-ADAPTED AOS ARE CALCULATED.

  SPHERICAL HARMONICS ARE USED.
  
  INTEGRALS LESS THAN  0.10E-13 ARE NEGLECTED.

  NUCLEAR REPULSION ENERGY :   12.9350915216 A.U.
  @MOLECU-I, ONE ELECTRON INTEGRALS (CPU/WALL):        0.02/       0.05 SECONDS.
  @TWOEL-I,      23566 INTEGRALS OF SYMMETRY TYPE  I I I I
  @TWOEL-I,      53100 INTEGRALS OF SYMMETRY TYPE  I J I J
  @TWOEL-I,      30614 INTEGRALS OF SYMMETRY TYPE  I I J J
  @TWOEL-I,      23296 INTEGRALS OF SYMMETRY TYPE  I J K L
  @TWOEL-I, TOTAL NUMBER OF 2-E INTEGRALS     130576.
  @MOLECU-I, TWO ELECTRON INTEGRALS (CPU/WALL):        2.87/       0.15 SECONDS.
 @CHECKOUT-I, Total execution time (CPU/WALL):        2.91/       0.22 seconds.

Running with 20 threads/proc

--executable xvmol finished with status     0 in        4.50 seconds (walltime).
 --invoking executable--
/home/CEISAM/blondel-a/soft/cfour2.1/cfour2.1-serial-mkl/bin/xvmol2ja
 @GETMEM-I,  Allocated  238418 MB of main memory.
 @CHECKOUT-I, Total execution time (CPU/WALL):        0.03/       0.10 seconds.
--executable xvmol2ja finished with status     0 in        2.13 seconds (walltime).
 --invoking executable--
/home/CEISAM/blondel-a/soft/cfour2.1/cfour2.1-serial-mkl/bin/xvscf
  There are   45 functions in the AO basis.

  There are 4 irreducible representations.

       Irrep        # of functions
         1                 20
         2                  8
         3                 13
         4                  4


  Parameters for SCF calculation: 
        SCF reference function:  RHF  
  Maximum number of iterations:  150
     Full symmetry point group: C2v 
     Computational point group: C2v 
        Initial density matrix: MOREAD                 
     SCF convergence tolerance: 10**(- 8)
  DIIS convergence acceleration:  ON
          Latest start for DIIS:   8
                     DIIS order:   6

  Memory information:     115250 words required.
  Fock matrices are constructed from AO integral file.
 @GETMEM-I,  Allocated       0 MB of main memory.
  Initialization and symmetry analysis required      0.003 seconds.

  @INITGES-I, Occupancies from core Hamiltonian:

          Alpha population by irrep:   5    2    2    0
           Beta population by irrep:   5    2    2    0


 total no. of electrons in initial guess :  0.000000000000000E+000
  --------------------------------------------------------------------
  Iteration         Total Energy            Largest Density Difference
  --------------------------------------------------------------------
       0            12.935091521591783              0.0000000000D+00
   current occupation vector 
     5  2  2  0
     5  2  2  0
       1          -392.585100378217192              0.3855432898D+02
   current occupation vector 
     5  2  2  0
     5  2  2  0
       2          -394.059158591638095              0.3827221617D+02
   current occupation vector 
     5  1  3  0
     5  1  3  0
       3          -397.449553840725059              0.2573621857D+02
   current occupation vector 
     5  2  2  0
     5  2  2  0
       4          -398.420460877684832              0.3908475872D+01
   current occupation vector 
     5  2  2  0
     5  2  2  0
       5          -398.657961672351291              0.1229478282D+01
   current occupation vector 
     5  2  2  0
     5  2  2  0
       6          -398.693701398711482              0.6206869350D+00
   current occupation vector 
     5  2  2  0
     5  2  2  0
       7          -398.697980171117024              0.1326238043D+00
   current occupation vector 
     5  2  2  0
     5  2  2  0
       8          -398.698033988493364              0.1448392616D-01
   current occupation vector 
     5  2  2  0
     5  2  2  0
       9          -398.698037100441013              0.3690683514D-02
   current occupation vector 
     5  2  2  0
     5  2  2  0
      10          -398.698037187527063              0.4217836640D-03
   current occupation vector 
     5  2  2  0
     5  2  2  0
      11          -398.698037189758793              0.1449806120D-03
   current occupation vector 
     5  2  2  0
     5  2  2  0
      12          -398.698037189898457              0.1976913615D-04
   current occupation vector 
     5  2  2  0
     5  2  2  0
      13          -398.698037189906699              0.4257558492D-05
   current occupation vector 
     5  2  2  0
     5  2  2  0
      14          -398.698037189907097              0.4768182988D-06
   current occupation vector 
     5  2  2  0
     5  2  2  0
      15          -398.698037189907154              0.1506227565D-06
   current occupation vector 
     5  2  2  0
     5  2  2  0
      16          -398.698037189907041              0.4367976136D-07
   current occupation vector 
     5  2  2  0
     5  2  2  0

  SCF has converged.

 Density matrix saved to file den.dat
 total electron number:   18.0000000000000     
     E(SCF)=      -398.698037189906472              0.3815812111D-08

  Eigenvector printing suppressed.

 @PUTMOS-I, Writing converged MOs to NEWMOS. 
 @PUTMOS-I, Symmetry   1 Full Blocks  5 Partial Blocksize   0
 @PUTMOS-I, Symmetry   2 Full Blocks  2 Partial Blocksize   0
 @PUTMOS-I, Symmetry   3 Full Blocks  3 Partial Blocksize   1
 @PUTMOS-I, Symmetry   4 Full Blocks  1 Partial Blocksize   0
 @PUTFOCK-I, Writing converged Fock matrix to NEWFOCK. 
 @PUTFOCK-I, Symmetry   1 Full Blocks  5 Partial Blocksize   0
 @PUTFOCK-I, Symmetry   2 Full Blocks  2 Partial Blocksize   0
 @PUTFOCK-I, Symmetry   3 Full Blocks  3 Partial Blocksize   1
 @PUTFOCK-I, Symmetry   4 Full Blocks  1 Partial Blocksize   0


 
  ORBITAL EIGENVALUES (ALPHA)  (1H = 27.2113834 eV)

       MO #        E(hartree)               E(eV)           FULLSYM    COMPSYM
       ----   --------------------   --------------------   -------   ---------
    1     1         -91.9708847953       -2502.6550078034      A1        A1 (1)
    2     2          -8.9730395868        -244.1688204602      A1        A1 (1)
    3    29          -6.6551025965        -181.0945483187      B2        B2 (3)
    4     3          -6.6540647631        -181.0663074379      A1        A1 (1)
    5    21          -6.6515895346        -180.9989530461      B1        B1 (2)
    6     4          -0.9848146760         -26.7981697257      A1        A1 (1)
    7    30          -0.5893381322         -16.0367058668      B2        B2 (3)
    8     5          -0.5022487556         -13.6668834506      A1        A1 (1)
    9    22          -0.3849057694         -10.4738184627      B1        B1 (2)
  +++++++++++++++++++++++++++++++++++++++++++++++++++++++++++++++++++++++++++++
   10     6           0.0344474733           0.9373634038      A1        A1 (1)
   11    31           0.0618773267           1.6837676596      B2        B2 (3)
   12     7           0.1121666219           3.0522089519      A1        A1 (1)
   13    32           0.1196609933           3.2561411676      B2        B2 (3)
   14    23           0.1247836056           3.3955345334      B1        B1 (2)
   15     8           0.1774038478           4.8274041185      A1        A1 (1)
   16    33           0.2104560722           5.7268008697      B2        B2 (3)
   17     9           0.2429039606           6.6097528018      A1        A1 (1)
   18    10           0.2770014651           7.5375930704      A1        A1 (1)
   19    42           0.3145981394           8.5606505885      A2        A2 (4)
   20    24           0.3193119425           8.6889196929      B1        B1 (2)
   21    34           0.4152122718          11.2985003206      B2        B2 (3)
   22    11           0.4661795106          12.6853893970      A1        A1 (1)
   23    35           0.4815687204          13.1041510848      B2        B2 (3)
   24    12           0.5355234623          14.5723342525      A1        A1 (1)
   25    25           0.5370506646          14.6138915398      B1        B1 (2)
   26    43           0.5410158341          14.7217892860      A2        A2 (4)
   27    13           0.5762632986          15.6809215566      A1        A1 (1)
   28    36           0.6043014655          16.4438788657      B2        B2 (3)
   29    14           0.8438173097          22.9614363327      A1        A1 (1)
   30    26           0.8704153142          23.6852048333      B1        B1 (2)
   31    37           0.8722365700          23.7347637215      B2        B2 (3)
   32    15           0.8948678184          24.3505912984      A1        A1 (1)
   33    44           1.1248158783          30.6077961181      A2        A2 (4)
   34    27           1.1475365826          31.2260579151      B1        B1 (2)
   35    16           1.1651664734          31.7057916331      A1        A1 (1)
   36    38           1.1743056111          31.9544802127      B2        B2 (3)
   37    17           1.2624594744          34.3532687841      A1        A1 (1)
   38    39           1.4030779495          38.1796920235      B2        B2 (3)
   39    18           1.6198854233          44.0793233169      A1        A1 (1)
   40    45           1.8505317860          50.3555299240      A2        A2 (4)
   41    40           1.8507467964          50.3613806542      B2        B2 (3)
   42    28           1.9018979648          51.7532747079      B1        B1 (2)
   43    19           2.0053164365          54.5674343918      A1        A1 (1)
   44    20           2.3690567524          64.4653115862      A1        A1 (1)
   45    41           2.4487651182          66.6342864877      B2        B2 (3)


  VSCF finished.

 @CHECKOUT-I, Total execution time (CPU/WALL):        0.09/       0.40 seconds.
--executable xvscf finished with status     0 in        2.22 seconds (walltime).
 --invoking executable--
/home/CEISAM/blondel-a/soft/cfour2.1/cfour2.1-serial-mkl/bin/xvtran
 @GETMEM-I,  Allocated  238418 MB of main memory.
  Full RHF integral transformation
  The following   5 MOs will be dropped:
    1  2  3  6  8
  There are  40 active molecular orbitals.
  Transformation of IIII integrals :
  1 pass through the AO integral file was required.
       23566 AO integrals were read.
       15323 MO integrals were written to HF2.
  Transformation of IIJJ integrals :
  1 pass through the AO integral file was required.
       30614 AO integrals were read.
       20992 MO integrals were written to HF2.
  Transformation of IJIJ integrals :
  1 pass through the AO integral file was required.
       53100 AO integrals were read.
       35548 MO integrals were written to HF2.
  Transformation of IJKL integrals :
  1 pass through the AO integral file was required.
       23296 AO integrals were read.
       17136 MO integrals were written to HF2.
  Summary of active molecular orbitals: 
------------------------------------------------------------------------
 
  Index      Eigenvalue    Symmetry    Index      Eigenvalue    Symmetry
------------------------------------------------------------------------
     1        -0.9848147        1        21         0.3193119        2
     2        -0.5022488        1        22         0.5370507        2
     3        -0.3849058        2        23         0.8704153        2
     4        -0.5893381        3        24         1.1475366        2
     5         0.0344475        1        25         1.9018980        2
     6         0.1121666        1        26         0.0618773        3
     7         0.1774038        1        27         0.1196610        3
     8         0.2429040        1        28         0.2104561        3
     9         0.2770015        1        29         0.4152123        3
    10         0.4661795        1        30         0.4815687        3
    11         0.5355235        1        31         0.6043015        3
    12         0.5762633        1        32         0.8722366        3
    13         0.8438173        1        33         1.1743056        3
    14         0.8948678        1        34         1.4030779        3
    15         1.1651665        1        35         1.8507468        3
    16         1.2624595        1        36         2.4487651        3
    17         1.6198854        1        37         0.3145981        4
    18         2.0053164        1        38         0.5410158        4
    19         2.3690568        1        39         1.1248159        4
    20         0.1247836        2        40         1.8505318        4
------------------------------------------------------------------------
 -0.984814675968779      -0.502248755593665      -0.384905769350678     
 -0.589338132172861       3.444747332652245E-002  0.112166621851400     
  0.177403847776927       0.242903960620871       0.277001465143582     
  0.466179510630997       0.535523462305738       0.576263298565654     
  0.843817309658345       0.894867818385885        1.16516647342067     
   1.26245947437302        1.61988542327965        2.00531643649517     
   2.36905675241140       0.124783605578847       0.319311942549323     
  0.537050664605314       0.870415314249308        1.14753658261818     
   1.90189796480341       6.187732666187791E-002  0.119660993333153     
  0.210456072208487       0.415212271808523       0.481568720418361     
  0.604301465455921       0.872236569991525        1.17430561111066     
   1.40307794948578        1.85074679643821        2.44876511819168     
  0.314598139411849       0.541015834058727        1.12481587827326     
   1.85053178604585     
 @CHECKOUT-I, Total execution time (CPU/WALL):        0.07/       2.28 seconds.
--executable xvtran finished with status     0 in        5.38 seconds (walltime).
 --invoking executable--
/home/CEISAM/blondel-a/soft/cfour2.1/cfour2.1-serial-mkl/bin/xintprc
 @GETMEM-I,  Allocated  238418 MB of main memory.
  @GMOIAA-I, Processing MO integrals for spin case AA.
  @GMOIAA-I, Generation of integral list completed.
                      TYPE                NUMBER
                      ----               --------
                      PPPP                 58654
                      PPPH                 25252
                      PPHH                  2810
                      PHPH                  1857
                      PHHH                   404
                      HHHH                    22

                     TOTAL                 88999

  @FORMT2-I, Second-order MP correlation energies:
            ------------------------------------------------
            E(SCF)                  =   -398.698037189906 a.u.
            E2(AA)                  =     -0.016955912840 a.u.
            E2(AB)                  =     -0.121113546610 a.u.
            E2(TOT)                 =     -0.155025372291 a.u.
            Total MP2 energy        =   -398.853062562197 a.u.
            ------------------------------------------------
   Largest T2 amplitudes for spin case AB:
       _       _                 _       _                 _       _
   i   j   a   b             i   j   a   b             i   j   a   b
-----------------------------------------------------------------------------
[  4   4  28  28]-0.02587 [  3   3  23  23]-0.02469 [  3   3   8   8]-0.02411
[  2   2  28  28]-0.02373 [  3   3  21  21]-0.02326 [  3   3  37  37]-0.02274
[  2   2   9   9]-0.02248 [  2   2  14  14]-0.02035 [  3   3  10  10]-0.02016
[  3   3  10   8] 0.01890 [  3   3   8  10] 0.01890 [  4   4   8   8]-0.01842
[  2   2  28  27]-0.01796 [  2   2  27  28]-0.01796 [  2   2  21  21]-0.01729
-----------------------------------------------------------------------------
   Norm of T2AB vector (     5476 symmetry allowed elements):  0.2286208656.
-----------------------------------------------------------------------------
 @CHECKOUT-I, Total execution time (CPU/WALL):        0.14/       0.18 seconds.
--executable xintprc finished with status     0 in        2.06 seconds (walltime).
  calling xncc 
 --invoking executable--
/home/CEISAM/blondel-a/soft/cfour2.1/cfour2.1-serial-mkl/bin/xncc
 @GETMEM-I,  Allocated       7 MB of main memory.

Running with 20 threads/proc

Following the lowest-energy eigenvector.
Using discrete restarting.
Using an orthogonal subspace.
Orthogonalizing against previous roots.
Using Modified Gram-Schmidt orthogonalization.

Using DIIS to accelerate the convergence of T1 and T2
Using DIIS to accelerate the convergence of T3
Using immediate high-order contributions
Performing 2 CCSDT sub-iterations
Damping factor for T3: 0.000000
Damping factor for T4: 0.000000

Transposes are coarse-threaded

Memory limit:                232.831 GiB
Minimum memory requirement:   23.651 MiB
Compromise memory amount:      4.153 GiB
Optimal memory requirement:    4.280 GiB

List              Location   Size        Cached Hunks Est. Disk I/O
----------------- ---------- ----------- ------ ----- -------------

           HR_DAV      470:1    1.306 MiB    Yes     -   136.121 MiB
                R        471   77.438 KiB    Yes     -     6.806 MiB
            R_DAV      470:0    1.306 MiB    Yes     -   263.923 MiB
           T_DIIS       70:0  215.742 KiB    Yes     -     3.792 MiB
           Z_DIIS       70:1  215.742 KiB    Yes     -     6.321 MiB
          <AI|bj>         18   42.781 KiB    Yes     -     6.524 MiB
          <Ab|Cd>        233    3.331 MiB    Yes     -     8.276 GiB
          <Ab|Ci>         30  381.344 KiB    Yes     -   982.779 MiB
          <Ab|Ij>         16   42.781 KiB    Yes     -   173.864 MiB
          <Ai|Bj>         25   42.781 KiB    Yes     -     5.765 MiB
          <Aj|bI>         21   42.781 KiB     No     -         0   B
          <Ij|Ka>         10    4.844 KiB    Yes     -    15.396 MiB
          <Ij|Kl>         13      576   B    Yes     -    25.875 KiB
           DD(AI)      448:8      376   B    Yes     -     7.000 KiB
        DD(Ab,Ij)        450   42.781 KiB    Yes     -     1.203 MiB
            F(EA)       92:0    3.109 KiB    Yes     -     2.517 MiB
            F(EM)       93:0      376   B    Yes     -   262.906 KiB
            F(MI)       91:0       48   B    Yes     -    60.656 KiB
           HR(AI)      490:2      376   B    Yes     -   485.625 KiB
        HR(Ab,Ij)        463   42.781 KiB    Yes     -   145.800 MiB
            Q(AI)      190:2      376   B    Yes     -   132.188 KiB
         Q(Ab,Ij)         50   42.781 KiB    Yes     -    63.921 MiB
        QQ(Ab,Ij)          3   42.781 KiB    Yes     -    10.192 MiB
            R(AI)      490:0      376   B    Yes     -     1.346 MiB
         R(Ab,Ij)        446   42.781 KiB    Yes     -   282.279 MiB
            T(AI)       90:0      376   B    Yes     -   618.711 KiB
         T(Ab,Ij)         46   42.781 KiB    Yes     -   147.932 MiB
         W(Mn,Ij)         53      576   B    Yes     -   927.281 KiB
        W~(Ab,Ej)        130  381.344 KiB    Yes     -   771.244 MiB
        W~(EM,bj)         56   42.781 KiB    Yes     -    82.820 MiB
        W~(Em,Bj)         58   42.781 KiB    Yes     -   129.012 MiB
        W~(Ij,Mb)        110    4.844 KiB    Yes     -    10.576 MiB
       W~~(Ab,Ej)        169  381.344 KiB    Yes     -   240.574 MiB
       W~~(EM,bj)         76   42.781 KiB    Yes     -    15.375 MiB
       W~~(Em,Bj)         78   42.781 KiB    Yes     -    15.375 MiB
       W~~(Ij,Mb)        165    4.844 KiB    Yes     -     3.056 MiB
         X(Ab,Ef)        433    3.331 MiB    Yes     -     2.706 GiB
         X(Ab,Ej)        430  381.344 KiB    Yes     -   458.042 MiB
         X(Ab,Ij)        416   42.781 KiB     No     -         0   B
            X(EA)      492:0    3.109 KiB    Yes     -   914.062 KiB
            X(EM)      493:0      376   B    Yes     -    72.188 KiB
         X(EM,bj)        418   42.781 KiB    Yes     -    32.710 MiB
         X(Ef,Am)        469  381.344 KiB    Yes     -   285.879 MiB
         X(Em,Bj)        425   42.781 KiB    Yes     -    57.524 MiB
         X(Ij,Mb)        410    4.844 KiB    Yes     -     7.321 MiB
            X(MI)      491:0       48   B    Yes     -    15.000 KiB
         X(Mn,Ie)        465    4.844 KiB    Yes     -     6.449 MiB
         X(Mn,Ij)        413      576   B    Yes     -   420.938 KiB
            Z(AI)       90:2      376   B    Yes     -   132.188 KiB
         Z(Ab,Ij)         63   42.781 KiB    Yes     -    15.040 MiB
      HR(abc,ijk)    HR3FILE    1.457 MiB    Yes     1     1.877 GiB
    HR(abcd,ijkl)    HR4FILE   61.506 MiB    Yes     1    77.658 GiB
            HR3_1      HR3_1    1.457 MiB    Yes     1     1.112 GiB
           HR3_10     HR3_10    1.457 MiB    Yes     1   259.020 MiB
           HR3_11     HR3_11    1.457 MiB    Yes     1    69.629 MiB
           HR3_12     HR3_12    1.457 MiB    Yes     1    69.629 MiB
           HR3_13     HR3_13    1.457 MiB    Yes     1    69.629 MiB
           HR3_14     HR3_14    1.457 MiB    Yes     1    69.629 MiB
           HR3_15     HR3_15    1.457 MiB    Yes     1    69.629 MiB
           HR3_16     HR3_16    1.457 MiB    Yes     1    69.629 MiB
           HR3_17     HR3_17    1.457 MiB    Yes     1    69.629 MiB
           HR3_18     HR3_18    1.457 MiB    Yes     1    69.629 MiB
           HR3_19     HR3_19    1.457 MiB    Yes     1    69.629 MiB
            HR3_2      HR3_2    1.457 MiB    Yes     1   264.590 MiB
           HR3_20     HR3_20    1.457 MiB    Yes     1    69.629 MiB
           HR3_21     HR3_21    1.457 MiB    Yes     1   114.191 MiB
           HR3_22     HR3_22    1.457 MiB    Yes     1   114.191 MiB
           HR3_23     HR3_23    1.457 MiB    Yes     1   114.191 MiB
           HR3_24     HR3_24    1.457 MiB    Yes     1   114.191 MiB
           HR3_25     HR3_25    1.457 MiB    Yes     1   114.191 MiB
           HR3_26     HR3_26    1.457 MiB    Yes     1   114.191 MiB
           HR3_27     HR3_27    1.457 MiB    Yes     1   114.191 MiB
           HR3_28     HR3_28    1.457 MiB    Yes     1   114.191 MiB
           HR3_29     HR3_29    1.457 MiB    Yes     1   114.191 MiB
            HR3_3      HR3_3    1.457 MiB    Yes     1   267.375 MiB
           HR3_30     HR3_30    1.457 MiB    Yes     1   114.191 MiB
           HR3_31     HR3_31    1.457 MiB     No     1         0   B
            HR3_4      HR3_4    1.457 MiB    Yes     1   270.160 MiB
            HR3_5      HR3_5    1.457 MiB    Yes     1   272.945 MiB
            HR3_6      HR3_6    1.457 MiB    Yes     1   275.730 MiB
            HR3_7      HR3_7    1.457 MiB    Yes     1   278.516 MiB
            HR3_8      HR3_8    1.457 MiB    Yes     1   281.301 MiB
            HR3_9      HR3_9    1.457 MiB    Yes     1   284.086 MiB
            HR4_1      HR4_1   61.506 MiB    Yes     1    48.124 GiB
           HR4_10     HR4_10   61.506 MiB    Yes     1    10.943 GiB
           HR4_11     HR4_11   61.506 MiB    Yes     1     2.942 GiB
           HR4_12     HR4_12   61.506 MiB    Yes     1     2.942 GiB
           HR4_13     HR4_13   61.506 MiB    Yes     1     2.942 GiB
           HR4_14     HR4_14   61.506 MiB    Yes     1     2.942 GiB
           HR4_15     HR4_15   61.506 MiB    Yes     1     2.942 GiB
           HR4_16     HR4_16   61.506 MiB    Yes     1     2.942 GiB
           HR4_17     HR4_17   61.506 MiB    Yes     1     2.942 GiB
           HR4_18     HR4_18   61.506 MiB    Yes     1     2.942 GiB
           HR4_19     HR4_19   61.506 MiB    Yes     1     2.942 GiB
            HR4_2      HR4_2   61.506 MiB    Yes     1    11.178 GiB
           HR4_20     HR4_20   61.506 MiB    Yes     1     2.942 GiB
           HR4_21     HR4_21   61.506 MiB    Yes     1     4.824 GiB
           HR4_22     HR4_22   61.506 MiB    Yes     1     4.824 GiB
           HR4_23     HR4_23   61.506 MiB    Yes     1     4.824 GiB
           HR4_24     HR4_24   61.506 MiB    Yes     1     4.824 GiB
           HR4_25     HR4_25   61.506 MiB    Yes     1     4.824 GiB
           HR4_26     HR4_26   61.506 MiB    Yes     1     4.824 GiB
           HR4_27     HR4_27   61.506 MiB    Yes     1     4.824 GiB
           HR4_28     HR4_28   61.506 MiB    Yes     1     4.824 GiB
           HR4_29     HR4_29   61.506 MiB    Yes     1     4.824 GiB
            HR4_3      HR4_3   61.506 MiB    Yes     1    11.296 GiB
           HR4_30     HR4_30   61.506 MiB    Yes     1     4.824 GiB
           HR4_31     HR4_31   61.506 MiB     No     1         0   B
            HR4_4      HR4_4   61.506 MiB    Yes     1    11.413 GiB
            HR4_5      HR4_5   61.506 MiB    Yes     1    11.531 GiB
            HR4_6      HR4_6   61.506 MiB    Yes     1    11.649 GiB
            HR4_7      HR4_7   61.506 MiB    Yes     1    11.766 GiB
            HR4_8      HR4_8   61.506 MiB    Yes     1    11.884 GiB
            HR4_9      HR4_9   61.506 MiB    Yes     1    12.002 GiB
       Q(abc,ijk)     Q3FILE    1.457 MiB    Yes     1    87.404 MiB
       R(abc,ijk)     R3FILE    1.457 MiB    Yes     1     5.997 GiB
     R(abcd,ijkl)     R4FILE   61.506 MiB    Yes     1   254.153 GiB
             R3_1       R3_1    1.457 MiB    Yes     1     2.146 GiB
            R3_10      R3_10    1.457 MiB    Yes     1   523.609 MiB
            R3_11      R3_11    1.457 MiB    Yes     1   194.961 MiB
            R3_12      R3_12    1.457 MiB    Yes     1   194.961 MiB
            R3_13      R3_13    1.457 MiB    Yes     1   194.961 MiB
            R3_14      R3_14    1.457 MiB    Yes     1   194.961 MiB
            R3_15      R3_15    1.457 MiB    Yes     1   194.961 MiB
            R3_16      R3_16    1.457 MiB    Yes     1   194.961 MiB
            R3_17      R3_17    1.457 MiB    Yes     1   194.961 MiB
            R3_18      R3_18    1.457 MiB    Yes     1   194.961 MiB
            R3_19      R3_19    1.457 MiB    Yes     1   194.961 MiB
             R3_2       R3_2    1.457 MiB    Yes     1   529.180 MiB
            R3_20      R3_20    1.457 MiB    Yes     1   111.406 MiB
            R3_21      R3_21    1.457 MiB    Yes     1   114.191 MiB
            R3_22      R3_22    1.457 MiB    Yes     1   114.191 MiB
            R3_23      R3_23    1.457 MiB    Yes     1   114.191 MiB
            R3_24      R3_24    1.457 MiB    Yes     1   114.191 MiB
            R3_25      R3_25    1.457 MiB    Yes     1   114.191 MiB
            R3_26      R3_26    1.457 MiB    Yes     1   114.191 MiB
            R3_27      R3_27    1.457 MiB    Yes     1   114.191 MiB
            R3_28      R3_28    1.457 MiB    Yes     1   114.191 MiB
            R3_29      R3_29    1.457 MiB    Yes     1   114.191 MiB
           R3_2_1     R3_2_1    1.394 MiB    Yes     1   104.567 MiB
             R3_3       R3_3    1.457 MiB    Yes     1   531.965 MiB
            R3_30      R3_30    1.457 MiB    Yes     1   114.191 MiB
            R3_31      R3_31    1.457 MiB     No     1         0   B
             R3_4       R3_4    1.457 MiB    Yes     1   534.750 MiB
           R3_4_1     R3_4_1    1.391 MiB    Yes     1   104.320 MiB
             R3_5       R3_5    1.457 MiB    Yes     1   537.535 MiB
             R3_6       R3_6    1.457 MiB    Yes     1   540.320 MiB
             R3_7       R3_7    1.457 MiB    Yes     1   543.105 MiB
             R3_8       R3_8    1.457 MiB    Yes     1   545.891 MiB
             R3_9       R3_9    1.457 MiB    Yes     1   548.676 MiB
             R4_1       R4_1   61.506 MiB    Yes     1    92.836 GiB
            R4_10      R4_10   61.506 MiB    Yes     1    22.121 GiB
            R4_11      R4_11   61.506 MiB    Yes     1     8.236 GiB
            R4_12      R4_12   61.506 MiB    Yes     1     8.236 GiB
            R4_13      R4_13   61.506 MiB    Yes     1     8.236 GiB
            R4_14      R4_14   61.506 MiB    Yes     1     8.236 GiB
            R4_15      R4_15   61.506 MiB    Yes     1     8.236 GiB
            R4_16      R4_16   61.506 MiB    Yes     1     8.236 GiB
            R4_17      R4_17   61.506 MiB    Yes     1     8.236 GiB
            R4_18      R4_18   61.506 MiB    Yes     1     8.236 GiB
            R4_19      R4_19   61.506 MiB    Yes     1     8.236 GiB
             R4_2       R4_2   61.506 MiB    Yes     1    22.356 GiB
            R4_20      R4_20   61.506 MiB    Yes     1     4.707 GiB
            R4_21      R4_21   61.506 MiB    Yes     1     4.824 GiB
            R4_22      R4_22   61.506 MiB    Yes     1     4.824 GiB
            R4_23      R4_23   61.506 MiB    Yes     1     4.824 GiB
            R4_24      R4_24   61.506 MiB    Yes     1     4.824 GiB
            R4_25      R4_25   61.506 MiB    Yes     1     4.824 GiB
            R4_26      R4_26   61.506 MiB    Yes     1     4.824 GiB
            R4_27      R4_27   61.506 MiB    Yes     1     4.824 GiB
            R4_28      R4_28   61.506 MiB    Yes     1     4.824 GiB
            R4_29      R4_29   61.506 MiB    Yes     1     4.824 GiB
           R4_2_1     R4_2_1   60.256 MiB    Yes     1     4.413 GiB
             R4_3       R4_3   61.506 MiB    Yes     1    22.474 GiB
            R4_30      R4_30   61.506 MiB    Yes     1     4.824 GiB
            R4_31      R4_31   61.506 MiB     No     1         0   B
             R4_4       R4_4   61.506 MiB    Yes     1    22.591 GiB
           R4_4_1     R4_4_1   60.231 MiB    Yes     1     4.411 GiB
             R4_5       R4_5   61.506 MiB    Yes     1    22.709 GiB
             R4_6       R4_6   61.506 MiB    Yes     1    22.827 GiB
             R4_7       R4_7   61.506 MiB    Yes     1    22.944 GiB
             R4_8       R4_8   61.506 MiB    Yes     1    23.062 GiB
             R4_9       R4_9   61.506 MiB    Yes     1    23.180 GiB
       T(abc,ijk)     T3FILE    1.457 MiB    Yes     1   483.633 MiB
     T(abcd,ijkl)     T4FILE   61.506 MiB    Yes     1     4.565 GiB
             T3_1       T3_1    1.457 MiB    Yes     1    43.702 MiB
             T3_2       T3_2    1.457 MiB    Yes     1    21.851 MiB
             T3_3       T3_3    1.457 MiB    Yes     1    21.851 MiB
             T3_4       T3_4    1.457 MiB    Yes     1    21.851 MiB
             T3_5       T3_5    1.457 MiB    Yes     1    21.851 MiB
       W(abc,ije)    WABCIJE   32.546 MiB    Yes     1     2.956 GiB
       W(abf,ijn)    WABFIJN    3.625 MiB    Yes     1   221.147 MiB
       W(abf,inj)    WABFINJ    5.761 MiB    Yes     1   351.428 MiB
       W(abm,ijk)    WABMIJK  414.125 KiB    Yes     1    37.611 MiB
       W(mnd,jkl)    WMNDJKL   46.375 KiB    Yes     1     2.763 MiB
       X(abc,ije)    XABCIJE   32.546 MiB    Yes     1     3.696 GiB
       X(abm,ijk)    XABMIJK  414.125 KiB    Yes     1    46.523 MiB
       X(mnd,jkl)    XMNDJKL   46.375 KiB    Yes     1     2.578 MiB
       Z(abc,ijk)     Z3FILE    1.457 MiB    Yes     1   240.360 MiB
     Z(abcd,ijkl)     Z4FILE   61.506 MiB    Yes     1     2.703 GiB
             Z3_1       Z3_1    1.457 MiB    Yes     1    43.702 MiB
             Z3_2       Z3_2    1.457 MiB    Yes     1    43.702 MiB
             Z3_3       Z3_3    1.457 MiB    Yes     1    43.702 MiB
             Z3_4       Z3_4    1.457 MiB    Yes     1    43.702 MiB
             Z3_5       Z3_5    1.457 MiB    Yes     1    43.702 MiB

Simulation and memory analysis took 3.503 seconds

MP2 correlation energy:  -0.155025372290607

Non-iterative calculation of MP2 took 0.005 cpu seconds and 0.000 walltime seconds at 0.791 Gflops/sec

Total MP2 energy: -398.853062562197067

Beginning iterative solution of CCSDTQ equations:

It.  Correlation Energy T1 Residual T2 Residual T3 Residual T4 Residual CPU Time (s) Walltime (s)
-------------------------------------------------------------------------------------------------
  1  -0.181947650358073 9.12782e-04 1.22836e-03 1.00060e-04 5.88890e-05      109.938        7.008
  2  -0.183122695733786 1.20304e-04 2.46784e-04 1.95149e-05 3.12583e-05      220.957       11.351
  3  -0.183304150877328 9.07709e-06 2.56847e-05 2.98446e-06 8.30094e-06      221.454       11.099
  4  -0.183327662017985 1.80854e-06 6.00666e-06 8.34760e-07 2.95018e-06      214.625       10.757
  5  -0.183334091236254 7.54110e-07 1.52527e-06 1.97654e-07 1.08783e-06      215.220       10.787

   A    I                     A    I                     A    I                  
-------------------------- -------------------------- -------------------------- 
  20    9 -0.0099862752548   21    7 -0.0063849316186   27    8  0.0047535131415 
  18    8  0.0083502922217   37    8 -0.0063644240967   23    7  0.0041094209845 
  22    8  0.0081276286853   16    7  0.0060133223089   24    8 -0.0036869878338 
  38    7 -0.0078630259031   14    9 -0.0056804736097   12    8 -0.0036061244812 
  13    7  0.0076808971392   17    8 -0.0049419775484   15    8 -0.0033927854645 

   A    B    I    J                     A    B    I    J                  
------------------------------------ ------------------------------------ 
  16   16    7    7 -0.0354546583718   13   16    8    8 -0.0267755664709 
  16   16    8    8 -0.0349086740991   22   17    9    9  0.0253680325747 
  17   17    9    9 -0.0321537330253   17   22    9    9  0.0253680325747 
  20   20    9    9 -0.0278588453793   22   22    9    9 -0.0253225069610 
  30   30    9    9 -0.0278204515453   17   17    7    7 -0.0236195729130 
  19   19    9    9 -0.0276066320817   32   32    8    8 -0.0233918269159 
  18   18    8    8 -0.0274023341767   17   16    7    8  0.0221975013816 
  16   13    8    8 -0.0267755664709 

It.  Correlation Energy T1 Residual T2 Residual T3 Residual T4 Residual CPU Time (s) Walltime (s)
-------------------------------------------------------------------------------------------------
  6  -0.183335826720160 1.05251e-07 5.34378e-07 7.22019e-08 4.00136e-07      216.224       10.837
  7  -0.183336367248045 1.98574e-08 1.86419e-07 2.85529e-08 1.52816e-07      218.834       10.968
  8  -0.183336540252621 1.02382e-08 5.97258e-08 1.01837e-08 5.85599e-08      219.170       10.985

CCSDTQ iterations converged in 8 cycles and 83.792 seconds (10.474 s/it.) at 5.287 Gflops/sec

Total CCSDTQ energy: -398.881373730159112

             _
Formation of H took 2.819 seconds at 1.484 Gflops/sec

Searching for 1 roots in irrep 2

EOMEE-CCSD guess vector:

   A    I                  
-------------------------- 
  10    9  1.0000000000000 

Beginning iterative solution of EOMEE-CCSDTQ equations:

It.  Correlation Energy R1 Residual R2 Residual R3 Residual R4 Residual CPU Time (s) Walltime (s)
-------------------------------------------------------------------------------------------------
  1   0.318344586271076 3.20533e-02 4.14739e-02 1.56248e-03 6.87342e-05      418.520       20.976
  2   0.253926725965728 9.20648e-02 2.51453e-02 2.47593e-03 1.82473e-04      447.000       22.403
  3   0.235117615725991 1.61313e-02 1.16970e-02 2.06246e-03 1.99048e-04      474.143       23.763
  4   0.229042345992874 1.49907e-02 2.78716e-03 2.49718e-03 1.94314e-04      494.711       24.794
  5   0.225515443241392 5.72223e-03 3.30681e-03 6.65975e-04 3.33233e-04      521.149       26.119
  6   0.224483169699455 2.89266e-03 7.70293e-04 5.79960e-04 1.60564e-04      553.493       27.740
  7   0.224229259702947 1.74649e-03 4.25488e-04 2.41657e-04 1.00874e-04      575.302       28.833
  8   0.224252135661808 6.25240e-04 2.79465e-04 1.24778e-04 5.94284e-05      607.664       30.455
  9   0.224280441527082 1.48007e-04 8.14471e-05 5.31151e-05 1.56776e-05      632.966       31.723
Locking on root: 0.224282534178468
 10   0.224282534178468 9.55407e-05 3.10373e-05 1.73094e-05 6.43948e-06      665.354       33.346
 11   0.224279600417465 5.48901e-05 1.39498e-05 7.43517e-06 4.70769e-06      682.123       34.187
 12   0.224279308946158 2.91692e-05 7.05466e-06 3.49633e-06 2.48025e-06      712.426       35.707
 13   0.224280219525190 1.14587e-05 3.21368e-06 1.79594e-06 7.51704e-07      741.383       37.156
 14   0.224280431919770 3.59193e-06 1.31707e-06 9.24497e-07 3.67404e-07      764.726       38.326

EOMEE-CCSDTQ iterations converged in 14 cycles and 415.529 seconds (29.681 s/it.) at 3.243 Gflops/sec

EOMEE-CCSDTQ excitation energy:   0.224280431919794 (  6.102980822087123 eV)
Total EOMEE-CCSDTQ energy:      -398.657093298239317

Converged root:

   A    I                     A    I                     A    I                  
-------------------------- -------------------------- -------------------------- 
  10    9  0.6013750639818   24    9  0.0318839166566   19    7  0.0076273420270 
  15    9 -0.2958067998046   29    9 -0.0188741224876   14    8  0.0055613929335 
  17    9  0.1019433404360   22    9  0.0169280292288   20    8 -0.0055555758487 
  27    9  0.0383050004305   12    9 -0.0149268130364   33    7  0.0053526511021 
  18    9  0.0322211185919   37    9 -0.0125323718338   39    9 -0.0048346735802 

   A    B    I    J                     A    B    I    J                  
------------------------------------ ------------------------------------ 
  14   10    9    9  0.0555805215012   25   10    9    9 -0.0262668223472 
  10   14    9    9  0.0555805215012   10   25    9    9 -0.0262668223472 
  16   10    7    9  0.0426353029664   10   15    9    6  0.0256866972827 
  10   16    9    7  0.0426353029664   15   10    6    9  0.0256866972827 
  30   10    9    9 -0.0319996477925   14   15    9    9 -0.0236462156741 
  10   30    9    9 -0.0319996477925   15   14    9    9 -0.0236462156741 
  10   12    9    8  0.0265987831820   10   22    9    8 -0.0232658510628 
  12   10    8    9  0.0265987831820 

Searching for 1 roots in irrep 4

EOMEE-CCSD guess vector:

   A    I                  
-------------------------- 
  11    9  1.0000000000000 

Beginning iterative solution of EOMEE-CCSDTQ equations:

It.  Correlation Energy R1 Residual R2 Residual R3 Residual R4 Residual CPU Time (s) Walltime (s)
-------------------------------------------------------------------------------------------------
  1   0.360451247392541 2.53710e-02 4.17763e-02 1.56337e-03 6.79200e-05      405.046       20.300
  2   0.297935455753475 7.49237e-02 2.47817e-02 2.47254e-03 1.81835e-04      447.539       22.430
  3   0.283094498317844 2.93770e-02 1.26884e-02 2.15352e-03 2.23712e-04      470.360       23.576
  4   0.273519917863404 4.27526e-02 7.28497e-03 5.51352e-03 2.61560e-04      489.075       24.511
  5   0.252216793594008 4.43338e-02 1.07350e-02 3.73593e-03 1.34450e-03      516.281       25.875
  6   0.237697411277946 2.32609e-02 6.39288e-03 2.86693e-03 1.23517e-03      548.357       27.483
  7   0.232093587246730 9.05674e-03 2.72991e-03 2.29960e-03 7.90488e-04      572.051       28.670
  8   0.231182504956407 2.42833e-03 1.52595e-03 6.09003e-04 3.48809e-04      602.686       30.205
  9   0.231082104885802 6.42823e-04 4.42907e-04 2.35537e-04 7.92860e-05      629.302       31.541
 10   0.231019583025522 2.13084e-04 1.47930e-04 8.08177e-05 3.78979e-05      650.560       32.605
Locking on root: 0.231006365425911
 11   0.231006365425911 4.62577e-05 7.59170e-05 3.73086e-05 2.33181e-05      677.888       33.974
 12   0.231008706666958 8.56612e-06 2.34908e-05 1.22717e-05 9.14391e-06      704.106       35.288
 13   0.231010677889270 5.43986e-06 9.75651e-06 5.54222e-06 2.08256e-06      733.786       36.776

EOMEE-CCSDTQ iterations converged in 13 cycles and 373.235 seconds (28.710 s/it.) at 3.249 Gflops/sec

EOMEE-CCSDTQ excitation energy:   0.231010677889287 (  6.286120125539299 eV)
Total EOMEE-CCSDTQ energy:      -398.650363052269824

Converged root:

   A    I                     A    I                     A    I                  
-------------------------- -------------------------- -------------------------- 
  13    9 -0.4838633861991   23    9 -0.0374395563556   38    9  0.0040764342282 
  16    9 -0.4114095815012   28    9 -0.0242490560684   26    6 -0.0038078062227 
  11    9  0.2409004948223   19    6  0.0054601462073   26    8 -0.0037278341644 
  21    9  0.0638928280232   14    7  0.0043744306929   33    8 -0.0033647546566 
  31    9  0.0442532689540   33    6  0.0040976652747   30    7 -0.0029068923745 

   A    B    I    J                     A    B    I    J                  
------------------------------------ ------------------------------------ 
  13   14    9    9 -0.0320238205705   17   13    9    6  0.0238971910511 
  14   13    9    9 -0.0320238205705   13   17    6    9  0.0238971910511 
  13   25    9    9  0.0278970473848   16   16    7    9 -0.0214395019443 
  25   13    9    9  0.0278970473848   16   16    9    7 -0.0214395019443 
  16   13    7    9 -0.0253338230157   16   22    8    9  0.0211297799897 
  13   16    9    7 -0.0253338230157   22   16    9    8  0.0211297799897 
  17   16    9    6  0.0239468177167   22   13    9    8  0.0207930472212 
  16   17    6    9  0.0239468177167 

 @CHECKOUT-I, Total execution time (CPU/WALL):    17692.03/     890.84 seconds.
--executable xncc finished with status     0 in      892.08 seconds (walltime).
  The final electronic energy is      -398.650363052269824 a.u. 
  This computation required                          919.53 seconds (walltime).
