 --invoking executable--
/home/CEISAM/blondel-a/soft/cfour2.1/cfour2.1-serial-mkl/bin/xjoda


   *************************************************************************
         <<<     CCCCCC     CCCCCC   |||     CCCCCC     CCCCCC   >>>
       <<<      CCC        CCC       |||    CCC        CCC         >>>
      <<<      CCC        CCC        |||   CCC        CCC            >>>
    <<<        CCC        CCC        |||   CCC        CCC              >>>
      <<<      CCC        CCC        |||   CCC        CCC            >>>
       <<<      CCC        CCC       |||    CCC        CCC         >>>
         <<<     CCCCCC     CCCCCC   |||     CCCCCC     CCCCCC   >>>
   *************************************************************************

     ****************************************************************
     * CFOUR Coupled-Cluster techniques for Computational Chemistry *
     ****************************************************************
 

   Department of Chemistry                Institut fuer Physikalische Chemie
   University of Florida                  Universitaet Mainz
   Gainesville, FL 32611, USA             D-55099 Mainz, Germany

   Department of Chemistry                Fakultaet fuer Chemie und Biowiss.
   Johns Hopkins University               Karlsruher Institut fuer Technologie
   Baltimore, MD 21218, USA               D-76131 Karlsruhe, Germany

   Department of Chemistry                Department of Physical Chemistry
   Southern Methodist University          Eotvos Lorand University
   Dallas, TX 75275, USA                  H-1053 Budapest, Hungary

 
                       Version 2.1
 
                     cribbar042                                        
                     Mon May  3 08:07:38 CEST 2021                     
                     integer*8 version is running
 
********************************************************************************
*                          Input from ZMAT file                                *
********************************************************************************
Ketene -GS                                                                      
S    0.0000000000            0.0000000000           -0.5036508625               
H    0.0000000000            1.8182810536            1.2521228828               
H    0.0000000000           -1.8182810536            1.2521228828               
                                                                                
*CFOUR(COORD=CARTESIAN,UNITS=BOHR                                               
       MEMORY=250,MEM_UNIT=GB,CC_PROG=ECC                                       
       FROZEN_CORE=1                                                            
       CALC=CC2,BASIS=AUG-PVDZ                                                  
       SCF_CONV=8,CC_CONV=7,ESTATE_CONV=5,ESTATE_MAXCYC=120                     
       EXCITE=EOMEE,ESTATE_SYM=0/1/0/1)                                         
                                                                                
********************************************************************************
    -------------------------------------------------------------------
                    CFOUR Control Parameters 
    -------------------------------------------------------------------
        External           Internal           Value            Units
          Name               Name
    -------------------------------------------------------------------
       ABCDTYPE             IABCDT         STANDARD    [  0]    ***   
       ANHARMONIC           IANHAR         OFF         [  0]    ***   
       ANH_ALGORIT          IANALG         STANDARD    [  0]    ***   
       ANH_DERIVAT          IANDER         SECOND      [  1]    ***   
       ANH_MODE             ANHMOD         VIBRATION   [  0]    ***   
       ANH_STEPSIZ          ICUBST             50000          x 10-6  
       ANH_SYMMETR          IANHSM         ABELIAN     [  0]    ***   
       AO_LADDERS           IAOLAD         SINGLEPASS  [  1]    ***   
       AV_SCF               IAVSCF         OFF         [  0]    ***   
       BASIS                IBASIS         AUG-PVDZ    [ 33]    ***   
       BOTHVECTORS          BOTHVC         OFF         [  0]    ***   
       BOX_POTENT           IPIAB          OFF         [  0]    ***   
       BREIT                IBREIT         OFF         [  0]    ***   
       BRUCK_CONV           IBRTOL          10D-  4             ***   
       BRUECKNER            IBRKNR         OFF         [  0]    ***   
       BUFFERSIZE           IBUFFS              4096            ***   
       CACHE_RECS           ICHREC             10               ***   
       CALCLEVEL            ICLLVL         CC2         [ 31]    ***   
       CCORBOPT             ICCORB         OFF         [  0]  x 0.01  
       CC_CONV              ICCCNV          10D-  7             ***   
       CC_EXPORDER          ICCEOR              5               ***   
       CC_EXTRAPOL          ICCEXT         DIIS        [  1]    ***   
       CC_GUESS             ICCGES         MP2         [  0]    ***   
       CC_MAXCYC            ICCCYC            100              cycles 
       CC_PROGRAM           ICCPRO         VCC         [  0]    ***   
       CHARGE               ICHRGE              0               ***   
       CHOLESKY             ICHOLE         OFF         [  0]    ***   
       CIS_CONV             ICISTL              5               ***   
       COMM_SIZE            IPSIZE            ***               ***   
       CONSTANT             ICONST         OLD         [  1]    ***   
       CONTINUUM            ICONTU         NONE        [  0]    ***   
       CONTRACTION          ICNTYP         GENERAL     [  1]    ***   
       COORDINATES          ICOORD         CARTESIAN   [  1]    ***   
       CPHF_CONVER          ICPHFT          10D- 16             ***   
       CPHF_MAXCYC          ICPHFC             64              cycles 
       CUBIC                ICUBIC         OFF         [  0]    ***   
       CURVILINEAR          ICURVY         OFF         [  0]    ***   
       DBOC                 IDBOC          OFF         [  0]    ***   
       DCT                  IDCT           OFF         [  0]    ***   
       DERIV_LEV            IDRLVL         ZERO        [  0]    ***   
       DEVMEM_SIZE          IDVMEM         *********           MByte  
       DIAG_MRCC            IEOMST          10D-  0             ***   
       DIFF_TYPE            IDIFTY         RELAXED     [  0]    ***   
       DIRECT               IDIRCT         OFF         [  0]    ***   
       DROPMO               IDRPMO      NONE         
       ECP                  IECP           OFF         [  0]    ***   
       EIGENVECTOR          IVEC                1               ***   
       EL_ANHARM            IELANH         OFF         [  0]    ***   
       EOMFOLLOW            IEOMSR         ENERGY      [  0]    ***   
       EOMIP                IEOMIP         OFF         [  0]    ***   
       EOMLEVEL             HBARFM         SAME        [  0]    ***   
       EOM_MRCC             IMRCCE         NEW         [  1]    ***   
       EOM_NONIT            EOMNON         OFF         [  0]    ***   
       EOM_NSING            IEOMSI          10D-  0             ***   
       EOM_NSTATES          IMRCCD         DAVIDSON    [  0]    ***   
       EOM_NTRIP            IEOMTR          10D-  0             ***   
       EOM_ORDER            IEXORD         ENERGY      [  0]    ***   
       EOM_PROPSTA          IEOMST              0               ***   
       ESTATE_CONV          IEXTOL          10D-  5             ***   
       ESTATE_DIAG          IEXDIG         ITERATIVE   [  0]    ***   
       ESTATE_LOCK          IESLOC         ON          [  1]    ***   
       ESTATE_MAXC          IEXMXC            120               ***   
       ESTATE_PROP          IEXPRP         OFF         [  0]    ***   
       ESTATE_SYM           IEXSYM   0,  1,  0,  1,
       EVAL_HESS            IRECAL              0            # of cyc.
       EXCITATION           IEXCIT              0               ***   
       EXCITE               IEXCIT         EOMEE       [  3]    ***   
       EXTERN_POT           IEXPOT         OFF         [  0]    ***   
       FCGRADNEW            IFCGNW         OFF         [  0]    ***   
       FC_FIELD             IFINFC              0             x 10-6  
       FD_CALTYPE           IFDCAL         GRADONLY    [  0]    ***   
       FD_PROJECT           IFDPRJ         OFF         [  1]    ***   
       FD_STEPSIZE          IDISFD              0            10-4 bohr
       FD_USEGROUP          IFDGRP         FULL        [  0]    ***   
       FILE_RECSIZ          IFLREC              4096           words  
       FINITE_PERT          IFIPER              0             x 10-6  
       FIXGEOM              IFIXGM         OFF         [  0]    ***   
       FOCK                 IFOCK          AO          [  1]    ***   
       FREQ_ALGORI          IVIALG         STANDARD    [  0]    ***   
       FROZEN_CORE          IFROCO         ON          [  1]    ***   
       GAMMA_ABCD           IGABCD         STORE       [  0]    ***   
       GAMMA_ABCI           IGABCI         STORE       [  0]    ***   
       GENBAS_1             IGNBS1              0               ***   
       GENBAS_2             IGNBS2              0               ***   
       GENBAS_3             IGNBS3              0               ***   
       GENBAS_4             IGNBS4              0               ***   
       GEO_CONV             ICONTL              5              H/bohr 
       GEO_MAXCYC           IOPTCY             50               ***   
       GEO_MAXSTEP          IMXSTP            300            millibohr
       GEO_METHOD           INR            SINGLE_POINT[  5]    ***   
       GIAO                 IGIAO          OFF         [  1]    ***   
       GIMIC                IGIMIC         OFF         [  0]    ***   
       GRID                 IGRID          OFF         [  0]    ***   
       GRID_ALGO            IGALGO         SERIAL      [  0]    ***   
       GUESS                IGUESS         MOREAD      [  0]    ***   
       HBAR                 IHBAR          ON          [  1]    ***   
       HESS_TYPE            IHESTP         SCF         [  0]    ***   
       HF2_FILE             IHF2Fl         USE         [  1]    ***   
       HFSTABILITY          ISTABL         OFF         [  0]    ***   
       INCORE               INCORE         OFF         [  0]    ***   
       INPUT_MRCC           IMRCC          ON          [  1]    ***   
       INTEGRALS            INTTYP         VMOL        [  1]    ***   
       JODA_PRINT           IJPRNT              0               ***   
       KEYWORD_OUT          IDMPKW         NO          [  0]    ***   
       LINDEP_TOL           ILINDP              8               ***   
       LINEQ_CONV           IZTACN          10D-  7           cycles  
       LINEQ_EXPOR          ILMAXD              5               ***   
       LINEQ_MAXCY          ILMAXC            100               ***   
       LINEQ_TYPE           ILTYPE         DIIS        [  1]    ***   
       LOCK_ORBOCC          ILOCOC         OFF         [  0]    ***   
       MEMORY_SIZE          IMEMSZ         *********           words  
       MEM_UNIT             IMEMU          GB          [  3]    ***   
       MRCC                 IMRCCC         OFF         [  0]    ***   
       MULTIPLICTY          IMULTP              1               ***   
       NACOUPLING           IVCOUP         OFF         [  0]    ***   
       NEGEVAL              IDIE           ABORT       [  0]    ***   
       NEWNORM              INEWNO         OFF         [  0]    ***   
       NON-HF               INONHF         OFF         [  0]    ***   
       NTOP_TAMP            ITOPT2             15               ***   
       NUC_MODEL            INUCMO         POINT       [  0]    ***   
       OCCUPATION           IOCCU   ESTIMATED BY SCF 
       OPEN-SHELL           IOPEN          SPIN-ORBITAL[  0]    ***   
       OPTVIB               IOPTVB         OFF         [  0]    ***   
       ORBITALS             IORBTP         STANDARD    [  0]    ***   
       PARALLEL             IPARAL         ON          [  1]    ***   
       PARA_INT             IPINTS         ON          [  1]    ***   
       PARA_PRINT           IPPRIN              0               ***   
       PERT_ORB             IPTORB         STANDARD    [  0]    ***   
       POINTS               IGRDFD              0               ***   
       PRINT                IPRNT               0               ***   
       PROPS                IPROPS         OFF         [  0]    ***   
       PROP_INTEGR          IINTYP         INTERNAL    [  0]    ***   
       PSI                  IPSI           OFF         [  0]    ***   
       QC_ALG               IQCALG         FLM         [  0]    ***   
       QC_LINALG            IQCLIN         TRIDIAG     [  2]    ***   
       QC_MAXCYC            IQCMAX          10D-100           cycles  
       QC_MAXSCFCY          IQCMSC          10D- 15           cycles  
       QC_RTRUST            IQCRTR          10D-  0           x 10-3  
       QC_SKIPSCF           IQCSKI         OFF         [  0]    ***   
       QC_START             IQCSTA          10D-  1             ***   
       QRHFGUESS            IQGUES         OFF         [  0]    ***   
       QUARTIC              IQUART         OFF         [  0]    ***   
       RAMAN_INT            IRAMIN         OFF         [  0]    ***   
       RAMAN_ORB            IRAMRE         UNRELAXED   [  0]    ***   
       RDO                  IRDOFM         OFF         [  0]    ***   
       REDUCE_REPR          REDREP         Ir          [  0]    ***   
       REFERENCE            IREFNC         RHF         [  0]    ***   
       RELATIVIST           IRELAT         OFF         [  0]    ***   
       RELAX_DENS           IRDENS         OFF         [  0]    ***   
       RESET_FLAGS          IRESET         OFF         [  0]    ***   
       RESTART_CC           ICCRES         OFF         [  0]    ***   
       ROT_EVEC             ROTVEC              0               ***   
       SAVE_INTS            ISVINT         OFF         [  0]    ***   
       SCALE_ON             ISTCRT              0               ***   
       SCF_CONV             ISCFCV          10D-  8             ***   
       SCF_DAMPING          IDAMP               0             x 10-3  
       SCF_EXPORDE          IRPPOR              6               ***   
       SCF_EXPSTAR          IRPPLS              8               ***   
       SCF_EXTRAPO          IRPP           ON          [  1]    ***   
       SCF_MAXCYC           ISCFCY            150              cycles 
       SCF_NOSTOP           ISCFST         OFF         [  0]    ***   
       SCF_PRINT            ISCFPR              0               ***   
       SCF_PROG             ISCFPR         SCF         [  0]    ***   
       SD_FIELD             IFINSD              0             x 10-6  
       SOPERT               IPERSO         OFF         [  0]    ***   
       SPHERICAL            IDFGHI         ON          [  1]    ***   
       SPINORBIT            ISOCAL         OFF         [  0]    ***   
       SPINROTATIO          ISRCON         OFF         [  0]    ***   
       SPIN_FLIP            ISPFLP         OFF         [  0]    ***   
       SPIN_ORBIT           ISPORB         OFF         [  0]    ***   
       SPIN_SCAL            ISCSMP         OFF         [  0]    ***   
       STEEPSCALE           ISTPSC              1000          x 10-3  
       SUBGROUP             ISUBGP         DEFAULT     [  0]    ***   
       SUBGRPAXIS           ISBXYZ         X           [  0]    ***   
       SYMMETRY             ISYM           ON          [  0]    ***   
       SYM_CHECK            ISYMCK         OVERRIDE    [  1]    ***   
       T3_EXTRAPOL          IT3EXT         OFF         [  0]    ***   
       T4_EXTRAPOL          IT4EXP         OFF         [  0]    ***   
       TAMP_SUM             IEVERY              5               ***   
       TESTSUITE            ITESTS         OFF         [  0]    ***   
       THERMOCH             ITHERM         OFF         [  0]    ***   
       TOL_CHOLESK          ITOLCH          10D-  4             ***   
       TRANGRAD             IRESRM         OFF         [  0]    ***   
       TRANS_INV            ITRAIN         USE         [  0]    ***   
       TREAT_PERT           ITREAT         SIMULTANEOUS[  0]    ***   
       TRIP_ALGORI          ITRALG         NORMAL      [  0]    ***   
       UIJ_THRESHO          IUIJTH              1               ***   
       UNITS                IUNITS         BOHR        [  1]    ***   
       UNOS                 IUNOS          OFF         [  0]    ***   
       UPDATE_HESS          IHUPDT         ON          [  1]    ***   
       VIBPHASE             ISETPH         STANDARD    [  0]    ***   
       VIBRATION            IVIB           NO          [  0]    ***   
       VIB_ALGORIT          IGEALG         STANDARD    [  0]    ***   
       VNATORB              IVNORB         OFF         [  0]    ***   
       VTRAN                IVTRAN         FULL/PARTIAL[  0]    ***   
       XFIELD               IXEFLD              0             x 10-6  
       XFORM_TOL            IXFTOL          10D- 11             ***   
       YFIELD               IYEFLD              0             x 10-6  
       ZFIELD               IZEFLD              0             x 10-6  
       ZSCALE_EXP           IZEXPS         OFF         [  0]    ***   
    -------------------------------------------------------------------
  @GETXYZ-I,     3 atoms read from ZMAT.
   Rotational constants (in cm-1): 
          4.8124145846             9.0335261580            10.2989632655
   Rotational constants (in MHz): 
     144272.5799367765        270818.3390724506        308755.1944770041
********************************************************************************
   The full molecular point group is C2v .
   The largest Abelian subgroup of the full molecular point group is C2v .
   The computational point group is C2v .
********************************************************************************


 ----------------------------------------------------------------
         Coordinates used in calculation (QCOMP) 
 ----------------------------------------------------------------
 Z-matrix   Atomic            Coordinates (in bohr)
  Symbol    Number           X              Y              Z
 ----------------------------------------------------------------
     S        16         0.00000000     0.00000000    -0.10412659
     H         1         0.00000000     1.81828105     1.65164716
     H         1         0.00000000    -1.81828105     1.65164716
 ----------------------------------------------------------------
 
   Interatomic distance matrix (Angstroms) 
 
                 S             H             H    
                [ 1]        [ 2]        [ 3]
  S    [ 1]     0.00000
  H    [ 2]     1.33756     0.00000
  H    [ 3]     1.33756     1.92439     0.00000
 rotcon2
   Rotational constants (in cm-1): 
          4.8124145846            10.2989632655             9.0335261580
   Rotational constants (in MHz): 
     144272.5799367765        308755.1944770041        270818.3390724506
  There are   5 frozen-core orbitals.
  There are   45 basis functions.
 @GEOPT-W, Archive file not created for single-point calculation.
 @CHECKOUT-I, Total execution time (CPU/WALL):        0.18/       1.54 seconds.
--executable xjoda finished with status     0 in        2.17 seconds (walltime).
 --invoking executable--
/home/CEISAM/blondel-a/soft/cfour2.1/cfour2.1-serial-mkl/bin/xvmol
 SERIAL VERSION OF MOLECULE STARTED
********************************************************************************
                    INPUT FROM MOL FILE
********************************************************************************
INTGRL        1    0    1    0    0    0    0    0    0                         
         *** CFOUR Program System (Release V0.1) ***                            
Ketene -GS                                                                      
    2    2 X  Y       0.10E-08              0    0                              
   9999.00      3.00                                                            
         16.00000000    1    3    1    1    1                                   
S #1   0.000000000000000   0.000000000000000  -0.104126590204952                
   13    5                                                                      
   110800.000000000       2.476400000000000E-004 -6.870000000000000E-005        
  1.991000000000000E-005  0.000000000000000E+000  0.000000000000000E+000        
   16610.0000000000       1.920260000000000E-003 -5.276800000000000E-004        
  1.534800000000000E-004  0.000000000000000E+000  0.000000000000000E+000        
   3781.00000000000       9.961920000000001E-003 -2.796710000000000E-003        
  8.095000000000000E-004  0.000000000000000E+000  0.000000000000000E+000        
   1071.00000000000       4.029750000000000E-002 -1.126510000000000E-002        
  3.289740000000000E-003  0.000000000000000E+000  0.000000000000000E+000        
   349.800000000000       0.128604000000000      -3.888340000000000E-002        
  1.129670000000000E-002  0.000000000000000E+000  0.000000000000000E+000        
   126.300000000000       0.303480000000000      -9.950249999999999E-002        
  2.963850000000000E-002  0.000000000000000E+000  0.000000000000000E+000        
   49.2600000000000       0.421432000000000      -0.199740000000000             
  5.998510000000000E-002  0.000000000000000E+000  0.000000000000000E+000        
   20.1600000000000       0.230781000000000      -0.123360000000000             
  4.132480000000000E-002  0.000000000000000E+000  0.000000000000000E+000        
   5.72000000000000       1.789710000000000E-002  0.513194000000000             
 -0.207474000000000       0.000000000000000E+000  0.000000000000000E+000        
   2.18200000000000      -2.975160000000000E-003  0.607120000000000             
 -0.392889000000000       0.000000000000000E+000  0.000000000000000E+000        
  0.432700000000000       8.495200000000000E-004  3.967530000000000E-002        
  0.632840000000000       0.000000000000000E+000  0.000000000000000E+000        
  0.157000000000000      -3.679400000000000E-004 -9.468640000000000E-003        
  0.556924000000000        1.00000000000000       0.000000000000000E+000        
  5.070000000000000E-002  0.000000000000000E+000  0.000000000000000E+000        
  0.000000000000000E+000  0.000000000000000E+000   1.00000000000000             
    9    4                                                                      
   399.700000000000       4.475410000000000E-003 -1.162510000000000E-003        
  0.000000000000000E+000  0.000000000000000E+000                                
   94.1900000000000       3.417080000000000E-002 -8.656640000000000E-003        
  0.000000000000000E+000  0.000000000000000E+000                                
   29.7500000000000       0.144250000000000      -3.908860000000000E-002        
  0.000000000000000E+000  0.000000000000000E+000                                
   10.7700000000000       0.353928000000000      -9.346250000000000E-002        
  0.000000000000000E+000  0.000000000000000E+000                                
   4.11900000000000       0.459085000000000      -0.147994000000000             
  0.000000000000000E+000  0.000000000000000E+000                                
   1.62500000000000       0.206383000000000       3.019040000000000E-002        
  0.000000000000000E+000  0.000000000000000E+000                                
  0.472600000000000       1.021410000000000E-002  0.561573000000000             
  0.000000000000000E+000  0.000000000000000E+000                                
  0.140700000000000      -6.031000000000000E-005  0.534776000000000             
   1.00000000000000       0.000000000000000E+000                                
  3.990000000000000E-002  0.000000000000000E+000  0.000000000000000E+000        
  0.000000000000000E+000   1.00000000000000                                     
    2    2                                                                      
  0.479000000000000        1.00000000000000       0.000000000000000E+000        
  0.152000000000000       0.000000000000000E+000   1.00000000000000             
          1.00000000    1    2    1    1                                        
H #2   0.000000000000000   1.818281053600000   1.651647155095048                
    5    3                                                                      
   13.0100000000000       1.968500000000000E-002  0.000000000000000E+000        
  0.000000000000000E+000                                                        
   1.96200000000000       0.137977000000000       0.000000000000000E+000        
  0.000000000000000E+000                                                        
  0.444600000000000       0.478148000000000       0.000000000000000E+000        
  0.000000000000000E+000                                                        
  0.122000000000000       0.501240000000000        1.00000000000000             
  0.000000000000000E+000                                                        
  2.974000000000000E-002  0.000000000000000E+000  0.000000000000000E+000        
   1.00000000000000                                                             
    2    2                                                                      
  0.727000000000000        1.00000000000000       0.000000000000000E+000        
  0.141000000000000       0.000000000000000E+000   1.00000000000000             
FINISH                                                                          
 
********************************************************************************
 ONE- AND TWO-ELECTRON INTEGRALS OVER SYMMETRY-ADAPTED AOS ARE CALCULATED.

  SPHERICAL HARMONICS ARE USED.
  
  INTEGRALS LESS THAN  0.10E-13 ARE NEGLECTED.

  NUCLEAR REPULSION ENERGY :   12.9350915216 A.U.
  @MOLECU-I, ONE ELECTRON INTEGRALS (CPU/WALL):        0.02/       0.06 SECONDS.
  @TWOEL-I,      23566 INTEGRALS OF SYMMETRY TYPE  I I I I
  @TWOEL-I,      53100 INTEGRALS OF SYMMETRY TYPE  I J I J
  @TWOEL-I,      30614 INTEGRALS OF SYMMETRY TYPE  I I J J
  @TWOEL-I,      23296 INTEGRALS OF SYMMETRY TYPE  I J K L
  @TWOEL-I, TOTAL NUMBER OF 2-E INTEGRALS     130576.
  @MOLECU-I, TWO ELECTRON INTEGRALS (CPU/WALL):        2.89/       0.15 SECONDS.
 @CHECKOUT-I, Total execution time (CPU/WALL):        2.94/       0.23 seconds.

Running with 20 threads/proc

--executable xvmol finished with status     0 in        0.78 seconds (walltime).
 --invoking executable--
/home/CEISAM/blondel-a/soft/cfour2.1/cfour2.1-serial-mkl/bin/xvmol2ja
 @GETMEM-I,  Allocated  238418 MB of main memory.
 @CHECKOUT-I, Total execution time (CPU/WALL):        0.03/       0.05 seconds.
--executable xvmol2ja finished with status     0 in        0.61 seconds (walltime).
 --invoking executable--
/home/CEISAM/blondel-a/soft/cfour2.1/cfour2.1-serial-mkl/bin/xvscf
  There are   45 functions in the AO basis.

  There are 4 irreducible representations.

       Irrep        # of functions
         1                 20
         2                  8
         3                 13
         4                  4


  Parameters for SCF calculation: 
        SCF reference function:  RHF  
  Maximum number of iterations:  150
     Full symmetry point group: C2v 
     Computational point group: C2v 
        Initial density matrix: MOREAD                 
     SCF convergence tolerance: 10**(- 8)
  DIIS convergence acceleration:  ON
          Latest start for DIIS:   8
                     DIIS order:   6

  Memory information:     115250 words required.
  Fock matrices are constructed from AO integral file.
 @GETMEM-I,  Allocated       0 MB of main memory.
  Initialization and symmetry analysis required      0.003 seconds.

  @INITGES-I, Occupancies from core Hamiltonian:

          Alpha population by irrep:   5    2    2    0
           Beta population by irrep:   5    2    2    0


 total no. of electrons in initial guess :  0.000000000000000E+000
  --------------------------------------------------------------------
  Iteration         Total Energy            Largest Density Difference
  --------------------------------------------------------------------
       0            12.935091521591783              0.0000000000D+00
   current occupation vector 
     5  2  2  0
     5  2  2  0
       1          -392.585100378217192              0.3855432898D+02
   current occupation vector 
     5  2  2  0
     5  2  2  0
       2          -394.059158591638095              0.3827221617D+02
   current occupation vector 
     5  1  3  0
     5  1  3  0
       3          -397.449553840725059              0.2573621857D+02
   current occupation vector 
     5  2  2  0
     5  2  2  0
       4          -398.420460877684832              0.3908475872D+01
   current occupation vector 
     5  2  2  0
     5  2  2  0
       5          -398.657961672351291              0.1229478282D+01
   current occupation vector 
     5  2  2  0
     5  2  2  0
       6          -398.693701398711482              0.6206869350D+00
   current occupation vector 
     5  2  2  0
     5  2  2  0
       7          -398.697980171117024              0.1326238043D+00
   current occupation vector 
     5  2  2  0
     5  2  2  0
       8          -398.698033988493364              0.1448392616D-01
   current occupation vector 
     5  2  2  0
     5  2  2  0
       9          -398.698037100441013              0.3690683514D-02
   current occupation vector 
     5  2  2  0
     5  2  2  0
      10          -398.698037187527063              0.4217836640D-03
   current occupation vector 
     5  2  2  0
     5  2  2  0
      11          -398.698037189758793              0.1449806120D-03
   current occupation vector 
     5  2  2  0
     5  2  2  0
      12          -398.698037189898457              0.1976913615D-04
   current occupation vector 
     5  2  2  0
     5  2  2  0
      13          -398.698037189906699              0.4257558492D-05
   current occupation vector 
     5  2  2  0
     5  2  2  0
      14          -398.698037189907097              0.4768182988D-06
   current occupation vector 
     5  2  2  0
     5  2  2  0
      15          -398.698037189907154              0.1506227565D-06
   current occupation vector 
     5  2  2  0
     5  2  2  0
      16          -398.698037189907041              0.4367976136D-07
   current occupation vector 
     5  2  2  0
     5  2  2  0

  SCF has converged.

 Density matrix saved to file den.dat
 total electron number:   18.0000000000000     
     E(SCF)=      -398.698037189906472              0.3815812111D-08

  Eigenvector printing suppressed.

 @PUTMOS-I, Writing converged MOs to NEWMOS. 
 @PUTMOS-I, Symmetry   1 Full Blocks  5 Partial Blocksize   0
 @PUTMOS-I, Symmetry   2 Full Blocks  2 Partial Blocksize   0
 @PUTMOS-I, Symmetry   3 Full Blocks  3 Partial Blocksize   1
 @PUTMOS-I, Symmetry   4 Full Blocks  1 Partial Blocksize   0
 @PUTFOCK-I, Writing converged Fock matrix to NEWFOCK. 
 @PUTFOCK-I, Symmetry   1 Full Blocks  5 Partial Blocksize   0
 @PUTFOCK-I, Symmetry   2 Full Blocks  2 Partial Blocksize   0
 @PUTFOCK-I, Symmetry   3 Full Blocks  3 Partial Blocksize   1
 @PUTFOCK-I, Symmetry   4 Full Blocks  1 Partial Blocksize   0


 
  ORBITAL EIGENVALUES (ALPHA)  (1H = 27.2113834 eV)

       MO #        E(hartree)               E(eV)           FULLSYM    COMPSYM
       ----   --------------------   --------------------   -------   ---------
    1     1         -91.9708847953       -2502.6550078034      A1        A1 (1)
    2     2          -8.9730395868        -244.1688204602      A1        A1 (1)
    3    29          -6.6551025965        -181.0945483187      B2        B2 (3)
    4     3          -6.6540647631        -181.0663074379      A1        A1 (1)
    5    21          -6.6515895346        -180.9989530461      B1        B1 (2)
    6     4          -0.9848146760         -26.7981697257      A1        A1 (1)
    7    30          -0.5893381322         -16.0367058668      B2        B2 (3)
    8     5          -0.5022487556         -13.6668834506      A1        A1 (1)
    9    22          -0.3849057694         -10.4738184627      B1        B1 (2)
  +++++++++++++++++++++++++++++++++++++++++++++++++++++++++++++++++++++++++++++
   10     6           0.0344474733           0.9373634038      A1        A1 (1)
   11    31           0.0618773267           1.6837676596      B2        B2 (3)
   12     7           0.1121666219           3.0522089519      A1        A1 (1)
   13    32           0.1196609933           3.2561411676      B2        B2 (3)
   14    23           0.1247836056           3.3955345334      B1        B1 (2)
   15     8           0.1774038478           4.8274041185      A1        A1 (1)
   16    33           0.2104560722           5.7268008697      B2        B2 (3)
   17     9           0.2429039606           6.6097528018      A1        A1 (1)
   18    10           0.2770014651           7.5375930704      A1        A1 (1)
   19    42           0.3145981394           8.5606505885      A2        A2 (4)
   20    24           0.3193119425           8.6889196929      B1        B1 (2)
   21    34           0.4152122718          11.2985003206      B2        B2 (3)
   22    11           0.4661795106          12.6853893970      A1        A1 (1)
   23    35           0.4815687204          13.1041510848      B2        B2 (3)
   24    12           0.5355234623          14.5723342525      A1        A1 (1)
   25    25           0.5370506646          14.6138915398      B1        B1 (2)
   26    43           0.5410158341          14.7217892860      A2        A2 (4)
   27    13           0.5762632986          15.6809215566      A1        A1 (1)
   28    36           0.6043014655          16.4438788657      B2        B2 (3)
   29    14           0.8438173097          22.9614363327      A1        A1 (1)
   30    26           0.8704153142          23.6852048333      B1        B1 (2)
   31    37           0.8722365700          23.7347637215      B2        B2 (3)
   32    15           0.8948678184          24.3505912984      A1        A1 (1)
   33    44           1.1248158783          30.6077961181      A2        A2 (4)
   34    27           1.1475365826          31.2260579151      B1        B1 (2)
   35    16           1.1651664734          31.7057916331      A1        A1 (1)
   36    38           1.1743056111          31.9544802127      B2        B2 (3)
   37    17           1.2624594744          34.3532687841      A1        A1 (1)
   38    39           1.4030779495          38.1796920235      B2        B2 (3)
   39    18           1.6198854233          44.0793233169      A1        A1 (1)
   40    45           1.8505317860          50.3555299240      A2        A2 (4)
   41    40           1.8507467964          50.3613806542      B2        B2 (3)
   42    28           1.9018979648          51.7532747079      B1        B1 (2)
   43    19           2.0053164365          54.5674343918      A1        A1 (1)
   44    20           2.3690567524          64.4653115862      A1        A1 (1)
   45    41           2.4487651182          66.6342864877      B2        B2 (3)


  VSCF finished.

 @CHECKOUT-I, Total execution time (CPU/WALL):        0.09/       0.37 seconds.
--executable xvscf finished with status     0 in        0.93 seconds (walltime).
 --invoking executable--
/home/CEISAM/blondel-a/soft/cfour2.1/cfour2.1-serial-mkl/bin/xvtran
 @GETMEM-I,  Allocated  238418 MB of main memory.
  Full RHF integral transformation
  The following   5 MOs will be dropped:
    1  2  3  6  8
  There are  40 active molecular orbitals.
  Transformation of IIII integrals :
  1 pass through the AO integral file was required.
       23566 AO integrals were read.
       15323 MO integrals were written to HF2.
  Transformation of IIJJ integrals :
  1 pass through the AO integral file was required.
       30614 AO integrals were read.
       20992 MO integrals were written to HF2.
  Transformation of IJIJ integrals :
  1 pass through the AO integral file was required.
       53100 AO integrals were read.
       35548 MO integrals were written to HF2.
  Transformation of IJKL integrals :
  1 pass through the AO integral file was required.
       23296 AO integrals were read.
       17136 MO integrals were written to HF2.
  Summary of active molecular orbitals: 
------------------------------------------------------------------------
 
  Index      Eigenvalue    Symmetry    Index      Eigenvalue    Symmetry
------------------------------------------------------------------------
     1        -0.9848147        1        21         0.3193119        2
     2        -0.5022488        1        22         0.5370507        2
     3        -0.3849058        2        23         0.8704153        2
     4        -0.5893381        3        24         1.1475366        2
     5         0.0344475        1        25         1.9018980        2
     6         0.1121666        1        26         0.0618773        3
     7         0.1774038        1        27         0.1196610        3
     8         0.2429040        1        28         0.2104561        3
     9         0.2770015        1        29         0.4152123        3
    10         0.4661795        1        30         0.4815687        3
    11         0.5355235        1        31         0.6043015        3
    12         0.5762633        1        32         0.8722366        3
    13         0.8438173        1        33         1.1743056        3
    14         0.8948678        1        34         1.4030779        3
    15         1.1651665        1        35         1.8507468        3
    16         1.2624595        1        36         2.4487651        3
    17         1.6198854        1        37         0.3145981        4
    18         2.0053164        1        38         0.5410158        4
    19         2.3690568        1        39         1.1248159        4
    20         0.1247836        2        40         1.8505318        4
------------------------------------------------------------------------
 -0.984814675968779      -0.502248755593665      -0.384905769350678     
 -0.589338132172861       3.444747332652245E-002  0.112166621851400     
  0.177403847776927       0.242903960620871       0.277001465143582     
  0.466179510630997       0.535523462305738       0.576263298565654     
  0.843817309658345       0.894867818385885        1.16516647342067     
   1.26245947437302        1.61988542327965        2.00531643649517     
   2.36905675241140       0.124783605578847       0.319311942549323     
  0.537050664605314       0.870415314249308        1.14753658261818     
   1.90189796480341       6.187732666187791E-002  0.119660993333153     
  0.210456072208487       0.415212271808523       0.481568720418361     
  0.604301465455921       0.872236569991525        1.17430561111066     
   1.40307794948578        1.85074679643821        2.44876511819168     
  0.314598139411849       0.541015834058727        1.12481587827326     
   1.85053178604585     
 @CHECKOUT-I, Total execution time (CPU/WALL):        0.07/       0.14 seconds.
--executable xvtran finished with status     0 in        0.68 seconds (walltime).
 --invoking executable--
/home/CEISAM/blondel-a/soft/cfour2.1/cfour2.1-serial-mkl/bin/xintprc
 @GETMEM-I,  Allocated  238418 MB of main memory.
  @GMOIAA-I, Processing MO integrals for spin case AA.
  @GMOIAA-I, Generation of integral list completed.
                      TYPE                NUMBER
                      ----               --------
                      PPPP                 58654
                      PPPH                 25252
                      PPHH                  2810
                      PHPH                  1857
                      PHHH                   404
                      HHHH                    22

                     TOTAL                 88999

  @FORMT2-I, Second-order MP correlation energies:
            ------------------------------------------------
            E(SCF)                  =   -398.698037189906 a.u.
            E2(AA)                  =     -0.016955912840 a.u.
            E2(AB)                  =     -0.121113546610 a.u.
            E2(TOT)                 =     -0.155025372291 a.u.
            Total MP2 energy        =   -398.853062562197 a.u.
            ------------------------------------------------
   Largest T2 amplitudes for spin case AB:
       _       _                 _       _                 _       _
   i   j   a   b             i   j   a   b             i   j   a   b
-----------------------------------------------------------------------------
[  4   4  28  28]-0.02587 [  3   3  23  23]-0.02469 [  3   3   8   8]-0.02411
[  2   2  28  28]-0.02373 [  3   3  21  21]-0.02326 [  3   3  37  37]-0.02274
[  2   2   9   9]-0.02248 [  2   2  14  14]-0.02035 [  3   3  10  10]-0.02016
[  3   3  10   8] 0.01890 [  3   3   8  10] 0.01890 [  4   4   8   8]-0.01842
[  2   2  28  27]-0.01796 [  2   2  27  28]-0.01796 [  2   2  21  21]-0.01729
-----------------------------------------------------------------------------
   Norm of T2AB vector (     5476 symmetry allowed elements):  0.2286208656.
-----------------------------------------------------------------------------
 @CHECKOUT-I, Total execution time (CPU/WALL):        0.09/       0.13 seconds.
--executable xintprc finished with status     0 in        0.68 seconds (walltime).
  calling xvcc 
 --invoking executable--
/home/CEISAM/blondel-a/soft/cfour2.1/cfour2.1-serial-mkl/bin/xvcc
 @GETMEM-I,  Allocated  238418 MB of main memory.
   CC2 energy will be calculated.
   The total correlation energy is -0.155025372291 a.u.
   The total correlation energy is -0.155032995283 a.u.
  Convergence information after     1 iterations: 
  Largest element of residual vector : -0.67544963E-02.
  Largest element of DIIS residual   : -0.67544963E-02.
   The total correlation energy is -0.155707117059 a.u.
  Convergence information after     2 iterations: 
  Largest element of residual vector : -0.21032029E-02.
  Largest element of DIIS residual   :  0.88878737E-03.
   The total correlation energy is -0.155926574306 a.u.
  Convergence information after     3 iterations: 
  Largest element of residual vector : -0.88636710E-03.
  Largest element of DIIS residual   :  0.38979407E-03.
   The total correlation energy is -0.156018444991 a.u.
  Convergence information after     4 iterations: 
  Largest element of residual vector :  0.16324079E-03.
  Largest element of DIIS residual   :  0.10080280E-03.
   The total correlation energy is -0.156019295149 a.u.
  Convergence information after     5 iterations: 
  Largest element of residual vector :  0.31326392E-04.
  Largest element of DIIS residual   :  0.18404502E-04.
   The total correlation energy is -0.156019239968 a.u.
  Convergence information after     6 iterations: 
  Largest element of residual vector :  0.77529055E-05.
  Largest element of DIIS residual   :  0.56129314E-05.
   The total correlation energy is -0.156019323549 a.u.
  Convergence information after     7 iterations: 
  Largest element of residual vector :  0.35792894E-05.
  Largest element of DIIS residual   :  0.16089452E-05.
   The total correlation energy is -0.156019322079 a.u.
  Convergence information after     8 iterations: 
  Largest element of residual vector :  0.72176747E-06.
  Largest element of DIIS residual   : -0.44469821E-06.
   The total correlation energy is -0.156019336850 a.u.
  Convergence information after     9 iterations: 
  Largest element of residual vector :  0.17141223E-06.
  Largest element of DIIS residual   :  0.81315778E-07.
   The total correlation energy is -0.156019340292 a.u.
  Convergence information after    10 iterations: 
  Largest element of residual vector : -0.64550794E-07.
  Largest element of DIIS residual   :  0.34634582E-07.
  Amplitude equations converged in    10iterations.
   The total correlation energy is -0.156019341571 a.u.
   The CC iterations have converged.

   Largest T1 amplitudes for spin case AA:
   i       a                 i       a                 i       a    
-----------------------------------------------------------------------------
[  3      21    ]-0.01093 [  4      27    ] 0.00941 [  2       9    ] 0.00835
[  4      28    ] 0.00806 [  2      10    ] 0.00760 [  4      29    ]-0.00697
[  4      34    ]-0.00630 [  3      20    ]-0.00628 [  2       8    ]-0.00597
[  2      16    ]-0.00524 [  2       6    ]-0.00424 [  4      30    ] 0.00391
[  2      12    ] 0.00384 [  1       7    ] 0.00344 [  1      12    ]-0.00317
-----------------------------------------------------------------------------
   Norm of T1AA vector (       47 symmetry allowed elements):  0.0272437174.
-----------------------------------------------------------------------------
   Largest T2 amplitudes for spin case AB:
       _       _                 _       _                 _       _
   i   j   a   b             i   j   a   b             i   j   a   b
-----------------------------------------------------------------------------
[  4   4  28  28]-0.02643 [  3   3  23  23]-0.02452 [  2   2  28  28]-0.02434
[  3   3   8   8]-0.02426 [  3   3  21  21]-0.02370 [  3   3  37  37]-0.02311
[  2   2   9   9]-0.02310 [  3   3  10  10]-0.02033 [  2   2  14  14]-0.02022
[  3   3  10   8] 0.01902 [  3   3   8  10] 0.01902 [  4   4   8   8]-0.01869
[  2   2  28  27]-0.01845 [  2   2  27  28]-0.01845 [  2   2  21  21]-0.01745
-----------------------------------------------------------------------------
   Norm of T2AB vector (     5476 symmetry allowed elements):  0.2304500684.
-----------------------------------------------------------------------------
       Summary of iterative solution of CC equations 
      -----------------------------------------------------------
                       Correlation           Total
       Iteration         Energy              Energy
      -----------------------------------------------------------
            0        -0.155025372291    -398.853062562197  DIIS 
            1        -0.155032995283    -398.853070185189  DIIS 
            2        -0.155707117059    -398.853744306965  DIIS 
            3        -0.155926574306    -398.853963764212  DIIS 
            4        -0.156018444991    -398.854055634897  DIIS 
            5        -0.156019295149    -398.854056485055  DIIS 
            6        -0.156019239968    -398.854056429874  DIIS 
            7        -0.156019323549    -398.854056513455  DIIS 
            8        -0.156019322079    -398.854056511985  DIIS 
            9        -0.156019336850    -398.854056526756  DIIS 
           10        -0.156019341571    -398.854056531478  DIIS 
      -----------------------------------------------------------
      A miracle has come to pass. The CC iterations have converged.
      The reference energy is      -398.69803718990647 a.u.
      The correlation energy is      -0.15601934157139 a.u.
      The total energy is          -398.85405653147785 a.u.
 @CHECKOUT-I, Total execution time (CPU/WALL):        2.01/       0.17 seconds.
--executable xvcc finished with status     0 in        0.73 seconds (walltime).
 --invoking executable--
/home/CEISAM/blondel-a/soft/cfour2.1/cfour2.1-serial-mkl/bin/xlambda
 @GETMEM-I,  Allocated  238418 MB of main memory.
 Hbar is calculated for a CC2 wave function.
 Calculation of Hbar completed.
 @CHECKOUT-I, Total execution time (CPU/WALL):        0.53/       0.12 seconds.
--executable xlambda finished with status     0 in        0.66 seconds (walltime).
 --invoking executable--
/home/CEISAM/blondel-a/soft/cfour2.1/cfour2.1-serial-mkl/bin/xvee
 @GETMEM-I,  Allocated  238418 MB of main memory.
  cc2 and ccprog  T                     0
  EOMEE-CC2 excitation energies will be evaluated.
  @SETMET-I, VPROP property integrals are used.
  @SETMET-I, A total of   2 target states will be studied.
  Summary of active alpha molecular orbitals:
------------------------------------------------------------------------------
Orbital      Sym   Eigenvalue  <xx>     <yy>     <zz>     <xy>     <xz>     <yz>
        SCF
  #  position
------------------------------------------------------------------------------
   1      6    1      -0.9848   0.000    0.000    0.000    0.000    0.000    0.000
   2      8    1      -0.5022   0.000    0.000    0.000    0.000    0.000    0.000
   3      9    2      -0.3849   0.000    0.000    0.000    0.000    0.000    0.000
   4      7    3      -0.5893   0.000    0.000    0.000    0.000    0.000    0.000
   5     10    1       0.0344   0.000    0.000    0.000    0.000    0.000    0.000
   6     12    1       0.1122   0.000    0.000    0.000    0.000    0.000    0.000
   7     15    1       0.1774   0.000    0.000    0.000    0.000    0.000    0.000
   8     17    1       0.2429   0.000    0.000    0.000    0.000    0.000    0.000
   9     18    1       0.2770   0.000    0.000    0.000    0.000    0.000    0.000
  10     22    1       0.4662   0.000    0.000    0.000    0.000    0.000    0.000
  11     24    1       0.5355   0.000    0.000    0.000    0.000    0.000    0.000
  12     27    1       0.5763   0.000    0.000    0.000    0.000    0.000    0.000
  13     29    1       0.8438   0.000    0.000    0.000    0.000    0.000    0.000
  14     32    1       0.8949   0.000    0.000    0.000    0.000    0.000    0.000
  15     35    1       1.1652   0.000    0.000    0.000    0.000    0.000    0.000
  16     37    1       1.2625   0.000    0.000    0.000    0.000    0.000    0.000
  17     39    1       1.6199   0.000    0.000    0.000    0.000    0.000    0.000
  18     43    1       2.0053   0.000    0.000    0.000    0.000    0.000    0.000
  19     44    1       2.3691   0.000    0.000    0.000    0.000    0.000    0.000
  20     14    2       0.1248   0.000    0.000    0.000    0.000    0.000    0.000
  21     20    2       0.3193   0.000    0.000    0.000    0.000    0.000    0.000
  22     25    2       0.5371   0.000    0.000    0.000    0.000    0.000    0.000
  23     30    2       0.8704   0.000    0.000    0.000    0.000    0.000    0.000
  24     34    2       1.1475   0.000    0.000    0.000    0.000    0.000    0.000
  25     42    2       1.9019   0.000    0.000    0.000    0.000    0.000    0.000
  26     11    3       0.0619   0.000    0.000    0.000    0.000    0.000    0.000
  27     13    3       0.1197   0.000    0.000    0.000    0.000    0.000    0.000
  28     16    3       0.2105   0.000    0.000    0.000    0.000    0.000    0.000
  29     21    3       0.4152   0.000    0.000    0.000    0.000    0.000    0.000
  30     23    3       0.4816   0.000    0.000    0.000    0.000    0.000    0.000
  31     28    3       0.6043   0.000    0.000    0.000    0.000    0.000    0.000
  32     31    3       0.8722   0.000    0.000    0.000    0.000    0.000    0.000
  33     36    3       1.1743   0.000    0.000    0.000    0.000    0.000    0.000
  34     38    3       1.4031   0.000    0.000    0.000    0.000    0.000    0.000
  35     41    3       1.8507   0.000    0.000    0.000    0.000    0.000    0.000
  36     45    3       2.4488   0.000    0.000    0.000    0.000    0.000    0.000
  37     19    4       0.3146   0.000    0.000    0.000    0.000    0.000    0.000
  38     26    4       0.5410   0.000    0.000    0.000    0.000    0.000    0.000
  39     33    4       1.1248   0.000    0.000    0.000    0.000    0.000    0.000
  40     40    4       1.8505   0.000    0.000    0.000    0.000    0.000    0.000
------------------------------------------------------------------------------
  @DRVTDA-I, Roots obtained by Davidson method.
  calling tda davidson                       4                     2
  after tda davidson                      4                     4
                     1                     1
  kroot is                      1
  calling tda davidson                       4                     4
  after tda davidson                      4                     4
                     1                     1
  kroot is                      1
__________________________________________________________________________
    Tamm-Dancoff (CIS) Excitation Energies and Transition Moments

                Excitation         Transition Dipole         Oscillator
 Root  Symmetry  Energy         x           y           z     Strength
__________________________________________________________________________
   1       2    0.24208      0.0000      0.0000      0.0000  .00000000D+00
__________________________________________________________________________
 
__________________________________________________________________________
  TDA excitation ergy:             0.242083524283 a.u.    6.5874 eV
  Total TDA electronic energy:  -398.455953665623 a.u.
 
  Dominant contributions: 
  SCF eigenvalue ordering used in list below. 
--------------------------------------------------------------------------------
    I    j    A    b
--------------------------------------------------------------------------------
    9    0   10    0  -0.8923985282 AA  
    9    0   15    0   0.4170090980 AA  
    9    0   17    0  -0.1380961208 AA  
    9    0   27    0  -0.0575598612 AA  
    9    0   24    0  -0.0504956135 AA  
    9    0   18    0  -0.0439071073 AA  
    9    0   29    0   0.0279555624 AA  
    8    0   14    0  -0.0213592253 AA  
    9    0   37    0   0.0154951350 AA  
    7    0   19    0  -0.0148024109 AA  
    6    0   14    0   0.0141177684 AA  
    9    0   22    0  -0.0127636788 AA  
    8    0   20    0   0.0123138824 AA  
    8    0   25    0   0.0116860459 AA  
    9    0   39    0   0.0106008751 AA  
--------------------------------------------------------------------------------
   1       4    0.23614      0.0000      0.0000      0.0000  .00000000D+00
__________________________________________________________________________
 
__________________________________________________________________________
  TDA excitation ergy:             0.236138337759 a.u.    6.4257 eV
  Total TDA electronic energy:  -398.461898852148 a.u.
 
  Dominant contributions: 
  SCF eigenvalue ordering used in list below. 
--------------------------------------------------------------------------------
    I    j    A    b
--------------------------------------------------------------------------------
    9    0   13    0  -0.7059950688 AA  
    9    0   16    0  -0.6071259047 AA  
    9    0   11    0   0.3283741544 AA  
    9    0   21    0   0.1106266621 AA  
    9    0   23    0  -0.0763914694 AA  
    9    0   31    0   0.0659388387 AA  
    9    0   28    0  -0.0438357213 AA  
    9    0   38    0   0.0202658598 AA  
    6    0   26    0  -0.0129867471 AA  
    7    0   20    0  -0.0063348454 AA  
    7    0   14    0   0.0060010591 AA  
    9    0   45    0   0.0054569484 AA  
    6    0   40    0  -0.0050513661 AA  
    8    0   19    0   0.0048853382 AA  
    8    0   26    0   0.0035032476 AA  
--------------------------------------------------------------------------------
__________________________________________________________________________
  @DOEOMEE-I, Excitation energies computed by the EOMEE-CC2/CC2-LR method.
  @DOEOMEE-I, right-hand eigenvectors will be computed.
  Beginning symmetry block   2.   1 roots requested.
  @DOEOMEE-I, Matrix dimension for diagonalization:     4995
  Creating initial guess for root
________________________________________________________________________
            Subspace          Eigenvalue           
 Iteration  Dimension   (a.u.)         (eV)       Overlap      Residual
________________________________________________________________________
  @NEWGES-I, Using TDA initial guess.
  1   1  0.2885594921D+00  0.7852102974D+01  0.0000000000D+00  0.2266538705D+00
  2   2  0.2270270301D+00  0.6177719557D+01  0.9766145214D+00  0.7377115919D-01
  3   3  0.2263660446D+00  0.6159733229D+01  0.9989631151D+00  0.1191568648D-01
  4   4  0.2262769353D+00  0.6157308442D+01  0.9998286267D+00  0.5967992779D-02
  L-O-C-K-I-N-G O-N R-O-O-T 
  5   5  0.2262559913D+00  0.6156738526D+01  0.9999711427D+00  0.2704366094D-02
  6   6  0.2262522600D+00  0.6156636991D+01  0.9999928028D+00  0.8074003304D-03
  7   7  0.2262527261D+00  0.6156649676D+01  0.9999995978D+00  0.3618040133D-03
  8   8  0.2262525753D+00  0.6156645572D+01  0.9999999064D+00  0.1459498093D-03
  9   9  0.2262525530D+00  0.6156644964D+01  0.9999999826D+00  0.3949166147D-04
 10  10  0.2262525274D+00  0.6156644267D+01  0.9999999991D+00  0.1883798492D-04
 11  11  0.2262525189D+00  0.6156644036D+01  0.9999999998D+00  0.5462708265D-05
  Converged eigenvalue:   0.226252518876144       a.u.
   Total EOMEE-CC2 electronic energy     -398.627804012601700 a.u.
  Converged eigenvector 
  SCF eigenvalue ordering used in list below. 
--------------------------------------------------------------------------------
    I    j    A    b
--------------------------------------------------------------------------------
    9    0   10    0  -0.6192589524 AA  
    9    0   15    0   0.2844266867 AA  
    9    0   17    0  -0.0917033178 AA  
    9    9   14   10  -0.0480993227 ABAB
    9    9   10   14  -0.0480993227 ABAB
    9    0   27    0  -0.0350038612 AA  
    7    9   16   10  -0.0333589098 ABAB
    9    7   10   16  -0.0333589098 ABAB
    9    0   24    0  -0.0316715870 AA  
    9    0   18    0  -0.0302791825 AA  
    9    9   30   10   0.0260436258 ABAB
    9    9   10   30   0.0260436258 ABAB
    9    0   12    0   0.0259018266 AA  
    9    8   10   12  -0.0239373095 ABAB
    8    9   12   10  -0.0239373095 ABAB
--------------------------------------------------------------------------------
  Converged eigenvector, normalized to one 
  SCF eigenvalue ordering used in list below. 
--------------------------------------------------------------------------------
    I    j    A    b
--------------------------------------------------------------------------------
    9    0   10    0  -0.6192589524 AA  
    9    0   15    0   0.2844266867 AA  
    9    0   17    0  -0.0917033178 AA  
    9    9   14   10  -0.0480993227 ABAB
    9    9   10   14  -0.0480993227 ABAB
    9    0   27    0  -0.0350038612 AA  
    7    9   16   10  -0.0333589098 ABAB
    9    7   10   16  -0.0333589098 ABAB
    9    0   24    0  -0.0316715870 AA  
    9    0   18    0  -0.0302791825 AA  
    9    9   30   10   0.0260436258 ABAB
    9    9   10   30   0.0260436258 ABAB
    9    0   12    0   0.0259018266 AA  
    9    8   10   12  -0.0239373095 ABAB
    8    9   12   10  -0.0239373095 ABAB
--------------------------------------------------------------------------------

  Eigenvector is saved on CCRE_2_1  

  Solution of   1 roots required   11 iterations.
  @DOEOMEE-I, right-hand eigenvectors will be computed.
  Beginning symmetry block   4.   1 roots requested.
  @DOEOMEE-I, Matrix dimension for diagonalization:     4917
  Creating initial guess for root
________________________________________________________________________
            Subspace          Eigenvalue           
 Iteration  Dimension   (a.u.)         (eV)       Overlap      Residual
________________________________________________________________________
  @NEWGES-I, Using TDA initial guess.
  1   1  0.2955657342D+00  0.8042752512D+01  0.0000000000D+00  0.1999788567D+00
  2   2  0.2374469768D+00  0.6461260723D+01  0.9811378948D+00  0.9077993986D-01
  3   3  0.2365019729D+00  0.6435545860D+01  0.9985889620D+00  0.1550935094D-01
  4   4  0.2363693447D+00  0.6431936862D+01  0.9998591794D+00  0.6913861427D-02
  5   5  0.2363416948D+00  0.6431184471D+01  0.9999385121D+00  0.2737678770D-02
  L-O-C-K-I-N-G O-N R-O-O-T 
  6   6  0.2363350824D+00  0.6431004538D+01  0.9999638659D+00  0.1887011152D-02
  7   7  0.2363333318D+00  0.6430956903D+01  0.9999966133D+00  0.4983526852D-03
  8   8  0.2363329498D+00  0.6430946507D+01  0.9999999142D+00  0.2016280366D-03
  9   9  0.2363330031D+00  0.6430947958D+01  0.9999999813D+00  0.4306532605D-04
 10  10  0.2363329676D+00  0.6430946993D+01  0.9999999988D+00  0.1002509753D-04
 11  11  0.2363329573D+00  0.6430946710D+01  0.9999999999D+00  0.1875236526D-05
  Converged eigenvalue:   0.236332957261854       a.u.
   Total EOMEE-CC2 electronic energy     -398.617723574215972 a.u.
  Converged eigenvector 
  SCF eigenvalue ordering used in list below. 
--------------------------------------------------------------------------------
    I    j    A    b
--------------------------------------------------------------------------------
    9    0   13    0  -0.4871829013 AA  
    9    0   16    0  -0.4109979000 AA  
    9    0   11    0   0.2633671832 AA  
    9    0   21    0   0.0611322223 AA  
    9    0   31    0   0.0425993125 AA  
    9    0   23    0  -0.0367566582 AA  
    9    0   28    0  -0.0250026700 AA  
    9    9   13   14  -0.0219365717 ABAB
    9    9   14   13  -0.0219365717 ABAB
    9    9   13   25   0.0180603031 ABAB
    9    9   25   13   0.0180603031 ABAB
    9    6   17   13   0.0167940442 ABAB
    6    9   13   17   0.0167940442 ABAB
    7    9   16   13  -0.0158744847 ABAB
    9    7   13   16  -0.0158744847 ABAB
--------------------------------------------------------------------------------
  Converged eigenvector, normalized to one 
  SCF eigenvalue ordering used in list below. 
--------------------------------------------------------------------------------
    I    j    A    b
--------------------------------------------------------------------------------
    9    0   13    0  -0.4871829013 AA  
    9    0   16    0  -0.4109979000 AA  
    9    0   11    0   0.2633671832 AA  
    9    0   21    0   0.0611322223 AA  
    9    0   31    0   0.0425993125 AA  
    9    0   23    0  -0.0367566582 AA  
    9    0   28    0  -0.0250026700 AA  
    9    9   13   14  -0.0219365717 ABAB
    9    9   14   13  -0.0219365717 ABAB
    9    9   13   25   0.0180603031 ABAB
    9    9   25   13   0.0180603031 ABAB
    9    6   17   13   0.0167940442 ABAB
    6    9   13   17   0.0167940442 ABAB
    7    9   16   13  -0.0158744847 ABAB
    9    7   13   16  -0.0158744847 ABAB
--------------------------------------------------------------------------------

  Eigenvector is saved on CCRE_4_1  

  Solution of   1 roots required   11 iterations.
 @CHECKOUT-I, Total execution time (CPU/WALL):        0.82/       0.35 seconds.
--executable xvee finished with status     0 in        0.90 seconds (walltime).
  The final electronic energy is      -398.617723574215972 a.u. 
  This computation required                            8.84 seconds (walltime).
