 --invoking executable--
/home/CEISAM/blondel-a/soft/cfour2.1/cfour2.1-serial-mkl/bin/xjoda


   *************************************************************************
         <<<     CCCCCC     CCCCCC   |||     CCCCCC     CCCCCC   >>>
       <<<      CCC        CCC       |||    CCC        CCC         >>>
      <<<      CCC        CCC        |||   CCC        CCC            >>>
    <<<        CCC        CCC        |||   CCC        CCC              >>>
      <<<      CCC        CCC        |||   CCC        CCC            >>>
       <<<      CCC        CCC       |||    CCC        CCC         >>>
         <<<     CCCCCC     CCCCCC   |||     CCCCCC     CCCCCC   >>>
   *************************************************************************

     ****************************************************************
     * CFOUR Coupled-Cluster techniques for Computational Chemistry *
     ****************************************************************
 

   Department of Chemistry                Institut fuer Physikalische Chemie
   University of Florida                  Universitaet Mainz
   Gainesville, FL 32611, USA             D-55099 Mainz, Germany

   Department of Chemistry                Fakultaet fuer Chemie und Biowiss.
   Johns Hopkins University               Karlsruher Institut fuer Technologie
   Baltimore, MD 21218, USA               D-76131 Karlsruhe, Germany

   Department of Chemistry                Department of Physical Chemistry
   Southern Methodist University          Eotvos Lorand University
   Dallas, TX 75275, USA                  H-1053 Budapest, Hungary

 
                       Version 2.1
 
                     nazare098                                         
                     Thu Mar 18 20:51:43 CET 2021                      
                     integer*8 version is running
 
********************************************************************************
*                          Input from ZMAT file                                *
********************************************************************************
Ketene -GS                                                                      
S    0.0000000000            0.0000000000           -0.5036508625               
H    0.0000000000            1.8182810536            1.2521228828               
H    0.0000000000           -1.8182810536            1.2521228828               
                                                                                
*CFOUR(COORD=CARTESIAN,UNITS=BOHR                                               
       MEMORY=100,MEM_UNIT=GB,CC_PROG=NCC                                       
       FROZEN_CORE=1                                                            
       CALC=CCSD,BASIS=AUG-PVDZ                                                 
       SCF_CONV=8,CC_CONV=7,ESTATE_CONV=5,ESTATE_MAXCYC=120                     
       EXCITE=EOMEE,ESTATE_SYM=0/1/0/1)                                         
                                                                                
********************************************************************************
    -------------------------------------------------------------------
                    CFOUR Control Parameters 
    -------------------------------------------------------------------
        External           Internal           Value            Units
          Name               Name
    -------------------------------------------------------------------
       ABCDTYPE             IABCDT         STANDARD    [  0]    ***   
       ANHARMONIC           IANHAR         OFF         [  0]    ***   
       ANH_ALGORIT          IANALG         STANDARD    [  0]    ***   
       ANH_DERIVAT          IANDER         SECOND      [  1]    ***   
       ANH_MODE             ANHMOD         VIBRATION   [  0]    ***   
       ANH_STEPSIZ          ICUBST             50000          x 10-6  
       ANH_SYMMETR          IANHSM         ABELIAN     [  0]    ***   
       AO_LADDERS           IAOLAD         SINGLEPASS  [  1]    ***   
       AV_SCF               IAVSCF         OFF         [  0]    ***   
       BASIS                IBASIS         AUG-PVDZ    [ 33]    ***   
       BOTHVECTORS          BOTHVC         OFF         [  0]    ***   
       BOX_POTENT           IPIAB          OFF         [  0]    ***   
       BREIT                IBREIT         OFF         [  0]    ***   
       BRUCK_CONV           IBRTOL          10D-  4             ***   
       BRUECKNER            IBRKNR         OFF         [  0]    ***   
       BUFFERSIZE           IBUFFS              4096            ***   
       CACHE_RECS           ICHREC             10               ***   
       CALCLEVEL            ICLLVL         CCSD        [ 10]    ***   
       CCORBOPT             ICCORB         OFF         [  0]  x 0.01  
       CC_CONV              ICCCNV          10D-  7             ***   
       CC_EXPORDER          ICCEOR              5               ***   
       CC_EXTRAPOL          ICCEXT         DIIS        [  1]    ***   
       CC_GUESS             ICCGES         MP2         [  0]    ***   
       CC_MAXCYC            ICCCYC            100              cycles 
       CC_PROGRAM           ICCPRO         NCC         [  5]    ***   
       CHARGE               ICHRGE              0               ***   
       CHOLESKY             ICHOLE         OFF         [  0]    ***   
       CIS_CONV             ICISTL              5               ***   
       COMM_SIZE            IPSIZE            ***               ***   
       CONSTANT             ICONST         OLD         [  1]    ***   
       CONTINUUM            ICONTU         NONE        [  0]    ***   
       CONTRACTION          ICNTYP         GENERAL     [  1]    ***   
       COORDINATES          ICOORD         CARTESIAN   [  1]    ***   
       CPHF_CONVER          ICPHFT          10D- 16             ***   
       CPHF_MAXCYC          ICPHFC             64              cycles 
       CUBIC                ICUBIC         OFF         [  0]    ***   
       CURVILINEAR          ICURVY         OFF         [  0]    ***   
       DBOC                 IDBOC          OFF         [  0]    ***   
       DCT                  IDCT           OFF         [  0]    ***   
       DERIV_LEV            IDRLVL         ZERO        [  0]    ***   
       DEVMEM_SIZE          IDVMEM         *********           MByte  
       DIAG_MRCC            IEOMST          10D-  0             ***   
       DIFF_TYPE            IDIFTY         RELAXED     [  0]    ***   
       DIRECT               IDIRCT         OFF         [  0]    ***   
       DROPMO               IDRPMO      NONE         
       ECP                  IECP           OFF         [  0]    ***   
       EIGENVECTOR          IVEC                1               ***   
       EL_ANHARM            IELANH         OFF         [  0]    ***   
       EOMFOLLOW            IEOMSR         ENERGY      [  0]    ***   
       EOMIP                IEOMIP         OFF         [  0]    ***   
       EOMLEVEL             HBARFM         SAME        [  0]    ***   
       EOM_MRCC             IMRCCE         NEW         [  1]    ***   
       EOM_NONIT            EOMNON         OFF         [  0]    ***   
       EOM_NSING            IEOMSI          10D-  0             ***   
       EOM_NSTATES          IMRCCD         DAVIDSON    [  0]    ***   
       EOM_NTRIP            IEOMTR          10D-  0             ***   
       EOM_ORDER            IEXORD         ENERGY      [  0]    ***   
       EOM_PROPSTA          IEOMST              0               ***   
       ESTATE_CONV          IEXTOL          10D-  5             ***   
       ESTATE_DIAG          IEXDIG         ITERATIVE   [  0]    ***   
       ESTATE_LOCK          IESLOC         ON          [  1]    ***   
       ESTATE_MAXC          IEXMXC            120               ***   
       ESTATE_PROP          IEXPRP         OFF         [  0]    ***   
       ESTATE_SYM           IEXSYM   0,  1,  0,  1,
       EVAL_HESS            IRECAL              0            # of cyc.
       EXCITATION           IEXCIT              0               ***   
       EXCITE               IEXCIT         EOMEE       [  3]    ***   
       EXTERN_POT           IEXPOT         OFF         [  0]    ***   
       FCGRADNEW            IFCGNW         OFF         [  0]    ***   
       FC_FIELD             IFINFC              0             x 10-6  
       FD_CALTYPE           IFDCAL         GRADONLY    [  0]    ***   
       FD_PROJECT           IFDPRJ         OFF         [  1]    ***   
       FD_STEPSIZE          IDISFD              0            10-4 bohr
       FD_USEGROUP          IFDGRP         FULL        [  0]    ***   
       FILE_RECSIZ          IFLREC              4096           words  
       FINITE_PERT          IFIPER              0             x 10-6  
       FIXGEOM              IFIXGM         OFF         [  0]    ***   
       FOCK                 IFOCK          AO          [  1]    ***   
       FREQ_ALGORI          IVIALG         STANDARD    [  0]    ***   
       FROZEN_CORE          IFROCO         ON          [  1]    ***   
       GAMMA_ABCD           IGABCD         STORE       [  0]    ***   
       GAMMA_ABCI           IGABCI         STORE       [  0]    ***   
       GENBAS_1             IGNBS1              0               ***   
       GENBAS_2             IGNBS2              0               ***   
       GENBAS_3             IGNBS3              0               ***   
       GENBAS_4             IGNBS4              0               ***   
       GEO_CONV             ICONTL              5              H/bohr 
       GEO_MAXCYC           IOPTCY             50               ***   
       GEO_MAXSTEP          IMXSTP            300            millibohr
       GEO_METHOD           INR            SINGLE_POINT[  5]    ***   
       GIAO                 IGIAO          OFF         [  1]    ***   
       GIMIC                IGIMIC         OFF         [  0]    ***   
       GRID                 IGRID          OFF         [  0]    ***   
       GRID_ALGO            IGALGO         SERIAL      [  0]    ***   
       GUESS                IGUESS         MOREAD      [  0]    ***   
       HBAR                 IHBAR          ON          [  1]    ***   
       HESS_TYPE            IHESTP         SCF         [  0]    ***   
       HF2_FILE             IHF2Fl         USE         [  1]    ***   
       HFSTABILITY          ISTABL         OFF         [  0]    ***   
       INCORE               INCORE         OFF         [  0]    ***   
       INPUT_MRCC           IMRCC          ON          [  1]    ***   
       INTEGRALS            INTTYP         VMOL        [  1]    ***   
       JODA_PRINT           IJPRNT              0               ***   
       KEYWORD_OUT          IDMPKW         NO          [  0]    ***   
       LINDEP_TOL           ILINDP              8               ***   
       LINEQ_CONV           IZTACN          10D-  7           cycles  
       LINEQ_EXPOR          ILMAXD              5               ***   
       LINEQ_MAXCY          ILMAXC            100               ***   
       LINEQ_TYPE           ILTYPE         DIIS        [  1]    ***   
       LOCK_ORBOCC          ILOCOC         OFF         [  0]    ***   
       MEMORY_SIZE          IMEMSZ         *********           words  
       MEM_UNIT             IMEMU          GB          [  3]    ***   
       MRCC                 IMRCCC         OFF         [  0]    ***   
       MULTIPLICTY          IMULTP              1               ***   
       NACOUPLING           IVCOUP         OFF         [  0]    ***   
       NEGEVAL              IDIE           ABORT       [  0]    ***   
       NEWNORM              INEWNO         OFF         [  0]    ***   
       NON-HF               INONHF         OFF         [  0]    ***   
       NTOP_TAMP            ITOPT2             15               ***   
       NUC_MODEL            INUCMO         POINT       [  0]    ***   
       OCCUPATION           IOCCU   ESTIMATED BY SCF 
       OPEN-SHELL           IOPEN          SPIN-ORBITAL[  0]    ***   
       OPTVIB               IOPTVB         OFF         [  0]    ***   
       ORBITALS             IORBTP         STANDARD    [  0]    ***   
       PARALLEL             IPARAL         ON          [  1]    ***   
       PARA_INT             IPINTS         ON          [  1]    ***   
       PARA_PRINT           IPPRIN              0               ***   
       PERT_ORB             IPTORB         STANDARD    [  0]    ***   
       POINTS               IGRDFD              0               ***   
       PRINT                IPRNT               0               ***   
       PROPS                IPROPS         OFF         [  0]    ***   
       PROP_INTEGR          IINTYP         INTERNAL    [  0]    ***   
       PSI                  IPSI           OFF         [  0]    ***   
       QC_ALG               IQCALG         FLM         [  0]    ***   
       QC_LINALG            IQCLIN         TRIDIAG     [  2]    ***   
       QC_MAXCYC            IQCMAX          10D-100           cycles  
       QC_MAXSCFCY          IQCMSC          10D- 15           cycles  
       QC_RTRUST            IQCRTR          10D-  0           x 10-3  
       QC_SKIPSCF           IQCSKI         OFF         [  0]    ***   
       QC_START             IQCSTA          10D-  1             ***   
       QRHFGUESS            IQGUES         OFF         [  0]    ***   
       QUARTIC              IQUART         OFF         [  0]    ***   
       RAMAN_INT            IRAMIN         OFF         [  0]    ***   
       RAMAN_ORB            IRAMRE         UNRELAXED   [  0]    ***   
       RDO                  IRDOFM         OFF         [  0]    ***   
       REDUCE_REPR          REDREP         Ir          [  0]    ***   
       REFERENCE            IREFNC         RHF         [  0]    ***   
       RELATIVIST           IRELAT         OFF         [  0]    ***   
       RELAX_DENS           IRDENS         OFF         [  0]    ***   
       RESET_FLAGS          IRESET         OFF         [  0]    ***   
       RESTART_CC           ICCRES         OFF         [  0]    ***   
       ROT_EVEC             ROTVEC              0               ***   
       SAVE_INTS            ISVINT         OFF         [  0]    ***   
       SCALE_ON             ISTCRT              0               ***   
       SCF_CONV             ISCFCV          10D-  8             ***   
       SCF_DAMPING          IDAMP               0             x 10-3  
       SCF_EXPORDE          IRPPOR              6               ***   
       SCF_EXPSTAR          IRPPLS              8               ***   
       SCF_EXTRAPO          IRPP           ON          [  1]    ***   
       SCF_MAXCYC           ISCFCY            150              cycles 
       SCF_NOSTOP           ISCFST         OFF         [  0]    ***   
       SCF_PRINT            ISCFPR              0               ***   
       SCF_PROG             ISCFPR         SCF         [  0]    ***   
       SD_FIELD             IFINSD              0             x 10-6  
       SOPERT               IPERSO         OFF         [  0]    ***   
       SPHERICAL            IDFGHI         ON          [  1]    ***   
       SPINORBIT            ISOCAL         OFF         [  0]    ***   
       SPINROTATIO          ISRCON         OFF         [  0]    ***   
       SPIN_FLIP            ISPFLP         OFF         [  0]    ***   
       SPIN_ORBIT           ISPORB         OFF         [  0]    ***   
       SPIN_SCAL            ISCSMP         OFF         [  0]    ***   
       STEEPSCALE           ISTPSC              1000          x 10-3  
       SUBGROUP             ISUBGP         DEFAULT     [  0]    ***   
       SUBGRPAXIS           ISBXYZ         X           [  0]    ***   
       SYMMETRY             ISYM           ON          [  0]    ***   
       SYM_CHECK            ISYMCK         OVERRIDE    [  1]    ***   
       T3_EXTRAPOL          IT3EXT         OFF         [  0]    ***   
       T4_EXTRAPOL          IT4EXP         OFF         [  0]    ***   
       TAMP_SUM             IEVERY              5               ***   
       TESTSUITE            ITESTS         OFF         [  0]    ***   
       THERMOCH             ITHERM         OFF         [  0]    ***   
       TOL_CHOLESK          ITOLCH          10D-  4             ***   
       TRANGRAD             IRESRM         OFF         [  0]    ***   
       TRANS_INV            ITRAIN         USE         [  0]    ***   
       TREAT_PERT           ITREAT         SIMULTANEOUS[  0]    ***   
       TRIP_ALGORI          ITRALG         NORMAL      [  0]    ***   
       UIJ_THRESHO          IUIJTH              1               ***   
       UNITS                IUNITS         BOHR        [  1]    ***   
       UNOS                 IUNOS          OFF         [  0]    ***   
       UPDATE_HESS          IHUPDT         ON          [  1]    ***   
       VIBPHASE             ISETPH         STANDARD    [  0]    ***   
       VIBRATION            IVIB           NO          [  0]    ***   
       VIB_ALGORIT          IGEALG         STANDARD    [  0]    ***   
       VNATORB              IVNORB         OFF         [  0]    ***   
       VTRAN                IVTRAN         FULL/PARTIAL[  0]    ***   
       XFIELD               IXEFLD              0             x 10-6  
       XFORM_TOL            IXFTOL          10D- 11             ***   
       YFIELD               IYEFLD              0             x 10-6  
       ZFIELD               IZEFLD              0             x 10-6  
       ZSCALE_EXP           IZEXPS         OFF         [  0]    ***   
    -------------------------------------------------------------------
  @GETXYZ-I,     3 atoms read from ZMAT.
   Rotational constants (in cm-1): 
          4.8124145846             9.0335261580            10.2989632655
   Rotational constants (in MHz): 
     144272.5799367765        270818.3390724506        308755.1944770041
********************************************************************************
   The full molecular point group is C2v .
   The largest Abelian subgroup of the full molecular point group is C2v .
   The computational point group is C2v .
********************************************************************************


 ----------------------------------------------------------------
         Coordinates used in calculation (QCOMP) 
 ----------------------------------------------------------------
 Z-matrix   Atomic            Coordinates (in bohr)
  Symbol    Number           X              Y              Z
 ----------------------------------------------------------------
     S        16         0.00000000     0.00000000    -0.10412659
     H         1         0.00000000     1.81828105     1.65164716
     H         1         0.00000000    -1.81828105     1.65164716
 ----------------------------------------------------------------
 
   Interatomic distance matrix (Angstroms) 
 
                 S             H             H    
                [ 1]        [ 2]        [ 3]
  S    [ 1]     0.00000
  H    [ 2]     1.33756     0.00000
  H    [ 3]     1.33756     1.92439     0.00000
 rotcon2
   Rotational constants (in cm-1): 
          4.8124145846            10.2989632655             9.0335261580
   Rotational constants (in MHz): 
     144272.5799367765        308755.1944770041        270818.3390724506
  There are   5 frozen-core orbitals.
  There are   45 basis functions.
 @GEOPT-W, Archive file not created for single-point calculation.
 @CHECKOUT-I, Total execution time (CPU/WALL):        0.16/       1.36 seconds.
--executable xjoda finished with status     0 in        1.87 seconds (walltime).
 --invoking executable--
/home/CEISAM/blondel-a/soft/cfour2.1/cfour2.1-serial-mkl/bin/xvmol
 SERIAL VERSION OF MOLECULE STARTED
********************************************************************************
                    INPUT FROM MOL FILE
********************************************************************************
INTGRL        1    0    1    0    0    0    0    0    0                         
         *** CFOUR Program System (Release V0.1) ***                            
Ketene -GS                                                                      
    2    2 X  Y       0.10E-08              0    0                              
   9999.00      3.00                                                            
         16.00000000    1    3    1    1    1                                   
S #1   0.000000000000000   0.000000000000000  -0.104126590204952                
   13    5                                                                      
   110800.000000000       2.476400000000000E-004 -6.870000000000000E-005        
  1.991000000000000E-005  0.000000000000000E+000  0.000000000000000E+000        
   16610.0000000000       1.920260000000000E-003 -5.276800000000000E-004        
  1.534800000000000E-004  0.000000000000000E+000  0.000000000000000E+000        
   3781.00000000000       9.961920000000001E-003 -2.796710000000000E-003        
  8.095000000000000E-004  0.000000000000000E+000  0.000000000000000E+000        
   1071.00000000000       4.029750000000000E-002 -1.126510000000000E-002        
  3.289740000000000E-003  0.000000000000000E+000  0.000000000000000E+000        
   349.800000000000       0.128604000000000      -3.888340000000000E-002        
  1.129670000000000E-002  0.000000000000000E+000  0.000000000000000E+000        
   126.300000000000       0.303480000000000      -9.950249999999999E-002        
  2.963850000000000E-002  0.000000000000000E+000  0.000000000000000E+000        
   49.2600000000000       0.421432000000000      -0.199740000000000             
  5.998510000000000E-002  0.000000000000000E+000  0.000000000000000E+000        
   20.1600000000000       0.230781000000000      -0.123360000000000             
  4.132480000000000E-002  0.000000000000000E+000  0.000000000000000E+000        
   5.72000000000000       1.789710000000000E-002  0.513194000000000             
 -0.207474000000000       0.000000000000000E+000  0.000000000000000E+000        
   2.18200000000000      -2.975160000000000E-003  0.607120000000000             
 -0.392889000000000       0.000000000000000E+000  0.000000000000000E+000        
  0.432700000000000       8.495200000000000E-004  3.967530000000000E-002        
  0.632840000000000       0.000000000000000E+000  0.000000000000000E+000        
  0.157000000000000      -3.679400000000000E-004 -9.468640000000000E-003        
  0.556924000000000        1.00000000000000       0.000000000000000E+000        
  5.070000000000000E-002  0.000000000000000E+000  0.000000000000000E+000        
  0.000000000000000E+000  0.000000000000000E+000   1.00000000000000             
    9    4                                                                      
   399.700000000000       4.475410000000000E-003 -1.162510000000000E-003        
  0.000000000000000E+000  0.000000000000000E+000                                
   94.1900000000000       3.417080000000000E-002 -8.656640000000000E-003        
  0.000000000000000E+000  0.000000000000000E+000                                
   29.7500000000000       0.144250000000000      -3.908860000000000E-002        
  0.000000000000000E+000  0.000000000000000E+000                                
   10.7700000000000       0.353928000000000      -9.346250000000000E-002        
  0.000000000000000E+000  0.000000000000000E+000                                
   4.11900000000000       0.459085000000000      -0.147994000000000             
  0.000000000000000E+000  0.000000000000000E+000                                
   1.62500000000000       0.206383000000000       3.019040000000000E-002        
  0.000000000000000E+000  0.000000000000000E+000                                
  0.472600000000000       1.021410000000000E-002  0.561573000000000             
  0.000000000000000E+000  0.000000000000000E+000                                
  0.140700000000000      -6.031000000000000E-005  0.534776000000000             
   1.00000000000000       0.000000000000000E+000                                
  3.990000000000000E-002  0.000000000000000E+000  0.000000000000000E+000        
  0.000000000000000E+000   1.00000000000000                                     
    2    2                                                                      
  0.479000000000000        1.00000000000000       0.000000000000000E+000        
  0.152000000000000       0.000000000000000E+000   1.00000000000000             
          1.00000000    1    2    1    1                                        
H #2   0.000000000000000   1.818281053600000   1.651647155095048                
    5    3                                                                      
   13.0100000000000       1.968500000000000E-002  0.000000000000000E+000        
  0.000000000000000E+000                                                        
   1.96200000000000       0.137977000000000       0.000000000000000E+000        
  0.000000000000000E+000                                                        
  0.444600000000000       0.478148000000000       0.000000000000000E+000        
  0.000000000000000E+000                                                        
  0.122000000000000       0.501240000000000        1.00000000000000             
  0.000000000000000E+000                                                        
  2.974000000000000E-002  0.000000000000000E+000  0.000000000000000E+000        
   1.00000000000000                                                             
    2    2                                                                      
  0.727000000000000        1.00000000000000       0.000000000000000E+000        
  0.141000000000000       0.000000000000000E+000   1.00000000000000             
FINISH                                                                          
 
********************************************************************************
 ONE- AND TWO-ELECTRON INTEGRALS OVER SYMMETRY-ADAPTED AOS ARE CALCULATED.

  SPHERICAL HARMONICS ARE USED.
  
  INTEGRALS LESS THAN  0.10E-13 ARE NEGLECTED.

  NUCLEAR REPULSION ENERGY :   12.9350915216 A.U.
  @MOLECU-I, ONE ELECTRON INTEGRALS (CPU/WALL):        0.02/       0.03 SECONDS.
  @TWOEL-I,      23566 INTEGRALS OF SYMMETRY TYPE  I I I I
  @TWOEL-I,      53100 INTEGRALS OF SYMMETRY TYPE  I J I J
  @TWOEL-I,      30614 INTEGRALS OF SYMMETRY TYPE  I I J J
  @TWOEL-I,      23296 INTEGRALS OF SYMMETRY TYPE  I J K L
  @TWOEL-I, TOTAL NUMBER OF 2-E INTEGRALS     130576.
  @MOLECU-I, TWO ELECTRON INTEGRALS (CPU/WALL):        1.53/       0.09 SECONDS.
 @CHECKOUT-I, Total execution time (CPU/WALL):        1.57/       0.13 seconds.

Running with 20 threads/proc

--executable xvmol finished with status     0 in        0.63 seconds (walltime).
 --invoking executable--
/home/CEISAM/blondel-a/soft/cfour2.1/cfour2.1-serial-mkl/bin/xvmol2ja
 @GETMEM-I,  Allocated   95367 MB of main memory.
 @CHECKOUT-I, Total execution time (CPU/WALL):        0.06/       0.03 seconds.
--executable xvmol2ja finished with status     0 in        0.52 seconds (walltime).
 --invoking executable--
/home/CEISAM/blondel-a/soft/cfour2.1/cfour2.1-serial-mkl/bin/xvscf
  There are   45 functions in the AO basis.

  There are 4 irreducible representations.

       Irrep        # of functions
         1                 20
         2                  8
         3                 13
         4                  4


  Parameters for SCF calculation: 
        SCF reference function:  RHF  
  Maximum number of iterations:  150
     Full symmetry point group: C2v 
     Computational point group: C2v 
        Initial density matrix: MOREAD                 
     SCF convergence tolerance: 10**(- 8)
  DIIS convergence acceleration:  ON
          Latest start for DIIS:   8
                     DIIS order:   6

  Memory information:     115250 words required.
  Fock matrices are constructed from AO integral file.
 @GETMEM-I,  Allocated       0 MB of main memory.
  Initialization and symmetry analysis required      0.002 seconds.

  @INITGES-I, Occupancies from core Hamiltonian:

          Alpha population by irrep:   5    2    2    0
           Beta population by irrep:   5    2    2    0


 total no. of electrons in initial guess :  0.000000000000000E+000
  --------------------------------------------------------------------
  Iteration         Total Energy            Largest Density Difference
  --------------------------------------------------------------------
       0            12.935091521591783              0.0000000000D+00
   current occupation vector 
     5  2  2  0
     5  2  2  0
       1          -392.585100378218840              0.3855432898D+02
   current occupation vector 
     5  2  2  0
     5  2  2  0
       2          -394.059158591636901              0.3827221617D+02
   current occupation vector 
     5  1  3  0
     5  1  3  0
       3          -397.449553840724889              0.2573621857D+02
   current occupation vector 
     5  2  2  0
     5  2  2  0
       4          -398.420460877684604              0.3908475872D+01
   current occupation vector 
     5  2  2  0
     5  2  2  0
       5          -398.657961672350893              0.1229478282D+01
   current occupation vector 
     5  2  2  0
     5  2  2  0
       6          -398.693701398711084              0.6206869350D+00
   current occupation vector 
     5  2  2  0
     5  2  2  0
       7          -398.697980171117536              0.1326238043D+00
   current occupation vector 
     5  2  2  0
     5  2  2  0
       8          -398.698033988493364              0.1448392616D-01
   current occupation vector 
     5  2  2  0
     5  2  2  0
       9          -398.698037100441923              0.3690683512D-02
   current occupation vector 
     5  2  2  0
     5  2  2  0
      10          -398.698037187527291              0.4217836642D-03
   current occupation vector 
     5  2  2  0
     5  2  2  0
      11          -398.698037189759930              0.1449806117D-03
   current occupation vector 
     5  2  2  0
     5  2  2  0
      12          -398.698037189899537              0.1976913595D-04
   current occupation vector 
     5  2  2  0
     5  2  2  0
      13          -398.698037189906927              0.4257557812D-05
   current occupation vector 
     5  2  2  0
     5  2  2  0
      14          -398.698037189906131              0.4768181681D-06
   current occupation vector 
     5  2  2  0
     5  2  2  0
      15          -398.698037189906529              0.1506235303D-06
   current occupation vector 
     5  2  2  0
     5  2  2  0
      16          -398.698037189906529              0.4367953665D-07
   current occupation vector 
     5  2  2  0
     5  2  2  0

  SCF has converged.

 Density matrix saved to file den.dat
 total electron number:   18.0000000000000     
     E(SCF)=      -398.698037189906984              0.3816826410D-08

  Eigenvector printing suppressed.

 @PUTMOS-I, Writing converged MOs to NEWMOS. 
 @PUTMOS-I, Symmetry   1 Full Blocks  5 Partial Blocksize   0
 @PUTMOS-I, Symmetry   2 Full Blocks  2 Partial Blocksize   0
 @PUTMOS-I, Symmetry   3 Full Blocks  3 Partial Blocksize   1
 @PUTMOS-I, Symmetry   4 Full Blocks  1 Partial Blocksize   0
 @PUTFOCK-I, Writing converged Fock matrix to NEWFOCK. 
 @PUTFOCK-I, Symmetry   1 Full Blocks  5 Partial Blocksize   0
 @PUTFOCK-I, Symmetry   2 Full Blocks  2 Partial Blocksize   0
 @PUTFOCK-I, Symmetry   3 Full Blocks  3 Partial Blocksize   1
 @PUTFOCK-I, Symmetry   4 Full Blocks  1 Partial Blocksize   0


 
  ORBITAL EIGENVALUES (ALPHA)  (1H = 27.2113834 eV)

       MO #        E(hartree)               E(eV)           FULLSYM    COMPSYM
       ----   --------------------   --------------------   -------   ---------
    1     1         -91.9708847953       -2502.6550078034      A1        A1 (1)
    2     2          -8.9730395868        -244.1688204602      A1        A1 (1)
    3    29          -6.6551025965        -181.0945483187      B2        B2 (3)
    4     3          -6.6540647631        -181.0663074379      A1        A1 (1)
    5    21          -6.6515895346        -180.9989530461      B1        B1 (2)
    6     4          -0.9848146760         -26.7981697257      A1        A1 (1)
    7    30          -0.5893381322         -16.0367058668      B2        B2 (3)
    8     5          -0.5022487556         -13.6668834506      A1        A1 (1)
    9    22          -0.3849057694         -10.4738184627      B1        B1 (2)
  +++++++++++++++++++++++++++++++++++++++++++++++++++++++++++++++++++++++++++++
   10     6           0.0344474733           0.9373634039      A1        A1 (1)
   11    31           0.0618773267           1.6837676596      B2        B2 (3)
   12     7           0.1121666219           3.0522089519      A1        A1 (1)
   13    32           0.1196609933           3.2561411676      B2        B2 (3)
   14    23           0.1247836056           3.3955345334      B1        B1 (2)
   15     8           0.1774038478           4.8274041185      A1        A1 (1)
   16    33           0.2104560722           5.7268008697      B2        B2 (3)
   17     9           0.2429039606           6.6097528018      A1        A1 (1)
   18    10           0.2770014651           7.5375930704      A1        A1 (1)
   19    42           0.3145981394           8.5606505885      A2        A2 (4)
   20    24           0.3193119425           8.6889196929      B1        B1 (2)
   21    34           0.4152122718          11.2985003206      B2        B2 (3)
   22    11           0.4661795106          12.6853893970      A1        A1 (1)
   23    35           0.4815687204          13.1041510848      B2        B2 (3)
   24    12           0.5355234623          14.5723342525      A1        A1 (1)
   25    25           0.5370506646          14.6138915398      B1        B1 (2)
   26    43           0.5410158341          14.7217892860      A2        A2 (4)
   27    13           0.5762632986          15.6809215566      A1        A1 (1)
   28    36           0.6043014655          16.4438788657      B2        B2 (3)
   29    14           0.8438173097          22.9614363327      A1        A1 (1)
   30    26           0.8704153142          23.6852048333      B1        B1 (2)
   31    37           0.8722365700          23.7347637215      B2        B2 (3)
   32    15           0.8948678184          24.3505912984      A1        A1 (1)
   33    44           1.1248158783          30.6077961181      A2        A2 (4)
   34    27           1.1475365826          31.2260579152      B1        B1 (2)
   35    16           1.1651664734          31.7057916331      A1        A1 (1)
   36    38           1.1743056111          31.9544802127      B2        B2 (3)
   37    17           1.2624594744          34.3532687841      A1        A1 (1)
   38    39           1.4030779495          38.1796920235      B2        B2 (3)
   39    18           1.6198854233          44.0793233168      A1        A1 (1)
   40    45           1.8505317860          50.3555299240      A2        A2 (4)
   41    40           1.8507467964          50.3613806542      B2        B2 (3)
   42    28           1.9018979648          51.7532747079      B1        B1 (2)
   43    19           2.0053164365          54.5674343918      A1        A1 (1)
   44    20           2.3690567524          64.4653115862      A1        A1 (1)
   45    41           2.4487651182          66.6342864877      B2        B2 (3)


  VSCF finished.

 @CHECKOUT-I, Total execution time (CPU/WALL):        3.31/       0.31 seconds.
--executable xvscf finished with status     0 in        0.80 seconds (walltime).
 --invoking executable--
/home/CEISAM/blondel-a/soft/cfour2.1/cfour2.1-serial-mkl/bin/xvtran
 @GETMEM-I,  Allocated   95367 MB of main memory.
  Full RHF integral transformation
  The following   5 MOs will be dropped:
    1  2  3  6  8
  There are  40 active molecular orbitals.
  Transformation of IIII integrals :
  1 pass through the AO integral file was required.
       23566 AO integrals were read.
       15323 MO integrals were written to HF2.
  Transformation of IIJJ integrals :
  1 pass through the AO integral file was required.
       30614 AO integrals were read.
       20992 MO integrals were written to HF2.
  Transformation of IJIJ integrals :
  1 pass through the AO integral file was required.
       53100 AO integrals were read.
       35548 MO integrals were written to HF2.
  Transformation of IJKL integrals :
  1 pass through the AO integral file was required.
       23296 AO integrals were read.
       17136 MO integrals were written to HF2.
  Summary of active molecular orbitals: 
------------------------------------------------------------------------
 
  Index      Eigenvalue    Symmetry    Index      Eigenvalue    Symmetry
------------------------------------------------------------------------
     1        -0.9848147        1        21         0.3193119        2
     2        -0.5022488        1        22         0.5370507        2
     3        -0.3849058        2        23         0.8704153        2
     4        -0.5893381        3        24         1.1475366        2
     5         0.0344475        1        25         1.9018980        2
     6         0.1121666        1        26         0.0618773        3
     7         0.1774038        1        27         0.1196610        3
     8         0.2429040        1        28         0.2104561        3
     9         0.2770015        1        29         0.4152123        3
    10         0.4661795        1        30         0.4815687        3
    11         0.5355235        1        31         0.6043015        3
    12         0.5762633        1        32         0.8722366        3
    13         0.8438173        1        33         1.1743056        3
    14         0.8948678        1        34         1.4030779        3
    15         1.1651665        1        35         1.8507468        3
    16         1.2624595        1        36         2.4487651        3
    17         1.6198854        1        37         0.3145981        4
    18         2.0053164        1        38         0.5410158        4
    19         2.3690568        1        39         1.1248159        4
    20         0.1247836        2        40         1.8505318        4
------------------------------------------------------------------------
 -0.984814675968775      -0.502248755593689      -0.384905769350673     
 -0.589338132172866       3.444747332665148E-002  0.112166621851402     
  0.177403847777470       0.242903960621158       0.277001465143608     
  0.466179510631259       0.535523462306108       0.576263298566212     
  0.843817309658544       0.894867818385677        1.16516647342058     
   1.26245947437332        1.61988542327578        2.00531643649461     
   2.36905675241124       0.124783605578847       0.319311942549315     
  0.537050664605308       0.870415314249337        1.14753658261823     
   1.90189796480340       6.187732666188882E-002  0.119660993333134     
  0.210456072208483       0.415212271808541       0.481568720418377     
  0.604301465455792       0.872236569991543        1.17430561111029     
   1.40307794948547        1.85074679643812        2.44876511819174     
  0.314598139411836       0.541015834058692        1.12481587827325     
   1.85053178604582     
 @CHECKOUT-I, Total execution time (CPU/WALL):        0.23/       0.07 seconds.
--executable xvtran finished with status     0 in        0.56 seconds (walltime).
 --invoking executable--
/home/CEISAM/blondel-a/soft/cfour2.1/cfour2.1-serial-mkl/bin/xintprc
 @GETMEM-I,  Allocated   95367 MB of main memory.
  Processing integrals for CCSD calculation.
  @GMOIAA-I, Processing MO integrals for spin case AA.
  @GMOIAA-I, Generation of integral list completed.
                      TYPE                NUMBER
                      ----               --------
                      PPPP                 58654
                      PPPH                 25252
                      PPHH                  2810
                      PHPH                  1857
                      PHHH                   404
                      HHHH                    22

                     TOTAL                 88999

  @FORMT2-I, Second-order MP correlation energies:
            ------------------------------------------------
            E(SCF)                  =   -398.698037189907 a.u.
            E2(AA)                  =     -0.016955912840 a.u.
            E2(AB)                  =     -0.121113546610 a.u.
            E2(TOT)                 =     -0.155025372291 a.u.
            Total MP2 energy        =   -398.853062562198 a.u.
            ------------------------------------------------
   Largest T2 amplitudes for spin case AB:
       _       _                 _       _                 _       _
   i   j   a   b             i   j   a   b             i   j   a   b
-----------------------------------------------------------------------------
[  4   4  28  28]-0.02587 [  3   3  23  23]-0.02469 [  3   3   8   8]-0.02411
[  2   2  28  28]-0.02373 [  3   3  21  21]-0.02326 [  3   3  37  37]-0.02274
[  2   2   9   9]-0.02248 [  2   2  14  14]-0.02035 [  3   3  10  10]-0.02016
[  3   3  10   8] 0.01890 [  3   3   8  10] 0.01890 [  4   4   8   8]-0.01842
[  2   2  28  27]-0.01796 [  2   2  27  28]-0.01796 [  2   2  21  21]-0.01729
-----------------------------------------------------------------------------
   Norm of T2AB vector (     5476 symmetry allowed elements):  0.2286208656.
-----------------------------------------------------------------------------
 @CHECKOUT-I, Total execution time (CPU/WALL):        0.12/       0.08 seconds.
--executable xintprc finished with status     0 in        0.57 seconds (walltime).
  calling xncc 
 --invoking executable--
/home/CEISAM/blondel-a/soft/cfour2.1/cfour2.1-serial-mkl/bin/xncc
 @GETMEM-I,  Allocated       7 MB of main memory.

Running with 20 threads/proc

Following the lowest-energy eigenvector.
Using discrete restarting.
Using an orthogonal subspace.
Orthogonalizing against previous roots.
Using Modified Gram-Schmidt orthogonalization.

Using DIIS to accelerate the convergence of T1 and T2
Using immediate high-order contributions
Damping factor for T3: 0.000000
Damping factor for T4: 0.000000

Transposes are coarse-threaded

Memory limit:                 93.132 GiB
Minimum memory requirement:    1.862 MiB
Compromise memory amount:      4.794 MiB
Optimal memory requirement:    8.870 MiB

List              Location   Size        Cached Hunks Est. Disk I/O
----------------- ---------- ----------- ------ ----- -------------

           HR_DAV      470:1    1.306 MiB    Yes     -   136.121 MiB
                R        471   77.438 KiB    Yes     -     6.806 MiB
            R_DAV      470:0    1.306 MiB    Yes     -   263.923 MiB
           T_DIIS       70:0  215.742 KiB    Yes     -     3.792 MiB
           Z_DIIS       70:1  215.742 KiB    Yes     -     6.321 MiB
          <AI|bj>         18   42.781 KiB    Yes     -     1.631 MiB
          <Ab|Cd>        233    3.331 MiB    Yes     -   153.231 MiB
          <Ab|Ci>         30  381.344 KiB    Yes     -   107.998 MiB
          <Ab|Ij>         16   42.781 KiB    Yes     -    16.043 MiB
          <Ai|Bj>         25   42.781 KiB    Yes     -     1.379 MiB
          <Aj|bI>         21   42.781 KiB     No     -         0   B
          <Ij|Ka>         10    4.844 KiB    Yes     -     1.547 MiB
          <Ij|Kl>         13      576   B    Yes     -     9.000 KiB
           DD(AI)      448:8      376   B    Yes     -     7.000 KiB
        DD(Ab,Ij)        450   42.781 KiB    Yes     -     1.203 MiB
            F(EA)       92:0    3.109 KiB    Yes     -   758.688 KiB
            F(EM)       93:0      376   B    Yes     -    34.883 KiB
            F(MI)       91:0       48   B    Yes     -    12.141 KiB
           HR(AI)      490:2      376   B    Yes     -   446.250 KiB
        HR(Ab,Ij)        463   42.781 KiB    Yes     -    83.467 MiB
            R(AI)      490:0      376   B    Yes     -     1.288 MiB
         R(Ab,Ij)        446   42.781 KiB    Yes     -   232.354 MiB
            T(AI)       90:0      376   B    Yes     -   170.375 KiB
         T(Ab,Ij)         46   42.781 KiB    Yes     -    12.408 MiB
         W(Mn,Ij)         53      576   B    Yes     -    34.875 KiB
        W~(Ab,Ej)        130  381.344 KiB    Yes     -    12.662 MiB
        W~(EM,bj)         56   42.781 KiB    Yes     -     4.944 MiB
        W~(Em,Bj)         58   42.781 KiB    Yes     -     4.763 MiB
        W~(Ij,Mb)        110    4.844 KiB    Yes     -   382.656 KiB
       W~~(EM,bj)         76   42.781 KiB    Yes     -   342.250 KiB
       W~~(Em,Bj)         78   42.781 KiB    Yes     -   342.250 KiB
         X(Ab,Ej)        430  381.344 KiB     No     -         0   B
         X(Ab,Ij)        416   42.781 KiB     No     -         0   B
            X(EA)      492:0    3.109 KiB    Yes     -   365.625 KiB
            X(EM)      493:0      376   B    Yes     -    13.125 KiB
         X(EM,bj)        418   42.781 KiB     No     -         0   B
         X(Ef,Am)        469  381.344 KiB     No     -         0   B
         X(Em,Bj)        425   42.781 KiB     No     -         0   B
         X(Ij,Mb)        410    4.844 KiB    Yes     -   382.500 KiB
            X(MI)      491:0       48   B    Yes     -     4.219 KiB
         X(Mn,Ie)        465    4.844 KiB     No     -         0   B
         X(Mn,Ij)        413      576   B    Yes     -    28.125 KiB
            Z(AI)       90:2      376   B    Yes     -    55.078 KiB
         Z(Ab,Ij)         63   42.781 KiB    Yes     -     6.267 MiB

Simulation and memory analysis took 0.035 seconds

MP2 correlation energy:  -0.155025372290612

Non-iterative calculation of MP2 took 0.004 cpu seconds and 0.000 walltime seconds at 0.832 Gflops/sec

Total MP2 energy: -398.853062562197579

Beginning iterative solution of CCSD equations:

It.  Correlation Energy T1 Residual T2 Residual CPU Time (s) Walltime (s)
-------------------------------------------------------------------------
  1  -0.171984813847672 6.75450e-03 4.95884e-03        0.699        0.041
  2  -0.175923149743549 1.90200e-03 2.48377e-03        0.258        0.014
  3  -0.177388112082164 5.68415e-04 5.07954e-04        0.255        0.013
  4  -0.177619082067558 2.12016e-04 1.79104e-04        0.255        0.013
  5  -0.177643700181855 6.79295e-05 3.25011e-05        0.254        0.013

   A    I                     A    I                     A    I                  
-------------------------- -------------------------- -------------------------- 
  20    9 -0.0102694311018   16    7  0.0070686427526   27    8  0.0046502049872 
  13    7  0.0084640000968   21    7 -0.0066954376952   23    7  0.0041551226445 
  18    8  0.0083214249361   37    8 -0.0062367435906   24    8 -0.0037939980330 
  22    8  0.0082899191519   17    8 -0.0059485520458   12    8 -0.0036298875000 
  38    7 -0.0075870608607   14    9 -0.0055080813107   27    6 -0.0031353879163 

   A    B    I    J                     A    B    I    J                  
------------------------------------ ------------------------------------ 
  16   16    7    7 -0.0334124902849   13   16    8    8 -0.0251207624126 
  16   16    8    8 -0.0331203722085   22   22    9    9 -0.0245829173254 
  17   17    9    9 -0.0300341005443   17   22    9    9  0.0240786326110 
  30   30    9    9 -0.0274843752157   22   17    9    9  0.0240786326110 
  20   20    9    9 -0.0266026708853   32   32    8    8 -0.0230885874009 
  19   19    9    9 -0.0263099834548   17   17    7    7 -0.0227240827384 
  18   18    8    8 -0.0258707646941   17   16    7    8  0.0206291126207 
  16   13    8    8 -0.0251207624126 

It.  Correlation Energy T1 Residual T2 Residual CPU Time (s) Walltime (s)
-------------------------------------------------------------------------
  6  -0.177641359981797 2.54621e-05 6.86365e-06        0.250        0.013
  7  -0.177641027942208 6.31550e-06 2.69149e-06        0.170        0.009
  8  -0.177641039356351 2.95819e-06 8.95460e-07        0.161        0.008
  9  -0.177641120359856 7.74525e-07 2.33489e-07        0.161        0.008
 10  -0.177641139048818 2.41950e-07 7.53909e-08        0.160        0.008

   A    I                     A    I                     A    I                  
-------------------------- -------------------------- -------------------------- 
  20    9 -0.0102804342638   16    7  0.0071205988544   27    8  0.0046586413704 
  13    7  0.0085065825009   21    7 -0.0067055725775   23    7  0.0041631886559 
  18    8  0.0083385109386   37    8 -0.0062399653107   24    8 -0.0037860697240 
  22    8  0.0082882327761   17    8 -0.0059239120286   12    8 -0.0036271398705 
  38    7 -0.0075873409203   14    9 -0.0055183272600   27    6 -0.0031334697471 

   A    B    I    J                     A    B    I    J                  
------------------------------------ ------------------------------------ 
  16   16    7    7 -0.0334126134895   13   16    8    8 -0.0251295499391 
  16   16    8    8 -0.0331334155127   22   22    9    9 -0.0245808467398 
  17   17    9    9 -0.0300315533976   22   17    9    9  0.0240735166637 
  30   30    9    9 -0.0274847322358   17   22    9    9  0.0240735166637 
  20   20    9    9 -0.0266017015352   32   32    8    8 -0.0230882587275 
  19   19    9    9 -0.0263098499399   17   17    7    7 -0.0227133204615 
  18   18    8    8 -0.0258707533158   17   16    7    8  0.0206317519183 
  16   13    8    8 -0.0251295499391 

It.  Correlation Energy T1 Residual T2 Residual CPU Time (s) Walltime (s)
-------------------------------------------------------------------------
 11  -0.177641148503534 6.01531e-08 2.95199e-08        0.161        0.008

CCSD iterations converged in 11 cycles and 0.149 seconds (0.014 s/it.) at 1.104 Gflops/sec

Total CCSD energy: -398.875678338410523

             _
Formation of H took 0.017 seconds at 1.467 Gflops/sec

Searching for 1 roots in irrep 2

EOMEE-CCSD guess vector:

   A    I                  
-------------------------- 
  10    9  1.0000000000000 

Beginning iterative solution of EOMEE-CCSD equations:

It.  Correlation Energy R1 Residual R2 Residual CPU Time (s) Walltime (s)
-------------------------------------------------------------------------
  1   0.316465302307754 3.20987e-02 4.16090e-02        0.372        0.019
  2   0.257230295054152 9.32050e-02 2.42792e-02        0.196        0.010
  3   0.235964874521448 1.99818e-02 1.26936e-02        0.190        0.010
  4   0.226833878041830 1.03603e-02 4.38544e-03        0.211        0.011
  5   0.225949263898020 5.12206e-03 1.00213e-03        0.229        0.011
  6   0.225758691729613 2.11143e-03 5.05039e-04        0.249        0.012
  7   0.225688732403940 6.30807e-04 2.22416e-04        0.271        0.014
Locking on root: 0.225683765552519
  8   0.225683765552519 1.86692e-04 7.87318e-05        0.291        0.015
  9   0.225683576688332 1.11240e-04 2.79368e-05        0.310        0.016
 10   0.225683383967303 4.91689e-05 1.38229e-05        0.331        0.017
 11   0.225683355955065 1.38992e-05 7.02501e-06        0.355        0.018
 12   0.225683351335053 2.60244e-06 2.19987e-06        0.370        0.019

EOMEE-CCSD iterations converged in 12 cycles and 0.169 seconds (0.014 s/it.) at 1.703 Gflops/sec

EOMEE-CCSD excitation energy:   0.225683351335078 (  6.141156200175721 eV)
Total EOMEE-CCSD energy:      -398.649994987075445

Converged root:

   A    I                     A    I                     A    I                  
-------------------------- -------------------------- -------------------------- 
  10    9  0.6088252869047   18    9  0.0313816885750   19    7  0.0079968670691 
  15    9 -0.2954520267117   29    9 -0.0181011134236   14    8  0.0059881139363 
  17    9  0.0989994168409   22    9  0.0175523290304   20    8 -0.0059399401327 
  27    9  0.0380117874223   12    9 -0.0173136964148   33    7  0.0054373160768 
  24    9  0.0321500759164   37    9 -0.0124723426652   39    9 -0.0049751901876 

   A    B    I    J                     A    B    I    J                  
------------------------------------ ------------------------------------ 
  14   10    9    9  0.0474550951886   10   15    9    6  0.0238362898744 
  10   14    9    9  0.0474550951886   15   10    6    9  0.0238362898744 
  16   10    7    9  0.0364336394092   10   12    9    8  0.0222121383859 
  10   16    9    7  0.0364336394092   12   10    8    9  0.0222121383859 
  30   10    9    9 -0.0309307625079   10   22    9    8 -0.0208567264282 
  10   30    9    9 -0.0309307625079   22   10    8    9 -0.0208567264282 
  25   10    9    9 -0.0238946298328   17   10    9    6 -0.0206610244169 
  10   25    9    9 -0.0238946298328 

Searching for 1 roots in irrep 4

EOMEE-CCSD guess vector:

   A    I                  
-------------------------- 
  11    9  1.0000000000000 

Beginning iterative solution of EOMEE-CCSD equations:

It.  Correlation Energy R1 Residual R2 Residual CPU Time (s) Walltime (s)
-------------------------------------------------------------------------
  1   0.358555599995683 2.54612e-02 4.19182e-02        0.147        0.007
  2   0.301036821440420 7.60073e-02 2.39233e-02        0.169        0.008
  3   0.283372899950626 3.19624e-02 1.35592e-02        0.190        0.010
  4   0.263967246322869 4.61299e-02 7.62974e-03        0.209        0.010
  5   0.248821722415540 4.62805e-02 8.80712e-03        0.229        0.011
  6   0.235674681599685 1.10565e-02 4.17620e-03        0.249        0.012
  7   0.233333433788107 3.26559e-03 1.70117e-03        0.268        0.013
  8   0.233126484681054 8.21354e-04 4.93721e-04        0.287        0.014
  9   0.233098056549085 2.65700e-04 1.53852e-04        0.307        0.015
Locking on root: 0.233093269127230
 10   0.233093269127230 6.18567e-05 3.68421e-05        0.324        0.016
 11   0.233093212188536 9.53678e-06 1.41580e-05        0.345        0.017
 12   0.233093105279520 2.69877e-06 2.12146e-06        0.365        0.018

EOMEE-CCSD iterations converged in 12 cycles and 0.155 seconds (0.013 s/it.) at 1.890 Gflops/sec

EOMEE-CCSD excitation energy:   0.233093105279522 (  6.342785855657643 eV)
Total EOMEE-CCSD energy:      -398.642585233131001

Converged root:

   A    I                     A    I                     A    I                  
-------------------------- -------------------------- -------------------------- 
  13    9 -0.4857623681096   23    9 -0.0371505331280   33    6  0.0041421847746 
  16    9 -0.4123638309770   28    9 -0.0243748930334   26    6 -0.0039688255986 
  11    9  0.2463407066408   19    6  0.0054607673898   26    8 -0.0037004838796 
  21    9  0.0633712629356   14    7  0.0045689289677   33    8 -0.0033903968392 
  31    9  0.0438880631127   38    9  0.0044715042596   30    7 -0.0029182894069 

   A    B    I    J                     A    B    I    J                  
------------------------------------ ------------------------------------ 
  13   14    9    9 -0.0274353401164   16   13    7    9 -0.0216735384868 
  14   13    9    9 -0.0274353401164   13   16    9    7 -0.0216735384868 
  13   25    9    9  0.0257281336332   22   16    9    8  0.0193719219441 
  25   13    9    9  0.0257281336332   16   22    8    9  0.0193719219441 
  17   16    9    6  0.0222529047287   22   13    9    8  0.0189887032692 
  16   17    6    9  0.0222529047287   13   22    8    9  0.0189887032692 
  17   13    9    6  0.0220523645090   16   16    7    9 -0.0186663051725 
  13   17    6    9  0.0220523645090 

 @CHECKOUT-I, Total execution time (CPU/WALL):       10.26/       0.64 seconds.
--executable xncc finished with status     0 in        1.19 seconds (walltime).
  The final electronic energy is      -398.642585233131001 a.u. 
  This computation required                            6.76 seconds (walltime).
