 --invoking executable--
/home/CEISAM/blondel-a/soft/cfour2.1/cfour2.1-serial-mkl/bin/xjoda


   *************************************************************************
         <<<     CCCCCC     CCCCCC   |||     CCCCCC     CCCCCC   >>>
       <<<      CCC        CCC       |||    CCC        CCC         >>>
      <<<      CCC        CCC        |||   CCC        CCC            >>>
    <<<        CCC        CCC        |||   CCC        CCC              >>>
      <<<      CCC        CCC        |||   CCC        CCC            >>>
       <<<      CCC        CCC       |||    CCC        CCC         >>>
         <<<     CCCCCC     CCCCCC   |||     CCCCCC     CCCCCC   >>>
   *************************************************************************

     ****************************************************************
     * CFOUR Coupled-Cluster techniques for Computational Chemistry *
     ****************************************************************
 

   Department of Chemistry                Institut fuer Physikalische Chemie
   University of Florida                  Universitaet Mainz
   Gainesville, FL 32611, USA             D-55099 Mainz, Germany

   Department of Chemistry                Fakultaet fuer Chemie und Biowiss.
   Johns Hopkins University               Karlsruher Institut fuer Technologie
   Baltimore, MD 21218, USA               D-76131 Karlsruhe, Germany

   Department of Chemistry                Department of Physical Chemistry
   Southern Methodist University          Eotvos Lorand University
   Dallas, TX 75275, USA                  H-1053 Budapest, Hungary

 
                       Version 2.1
 
                     cribbar055                                        
                     Tue Mar 16 14:38:06 CET 2021                      
                     integer*8 version is running
 
********************************************************************************
*                          Input from ZMAT file                                *
********************************************************************************
Ketene -GS                                                                      
Cl    0.0000000000            0.0000000000           -0.0248978291              
H     0.0000000000            0.0000000000            2.3848313950              
                                                                                
*CFOUR(COORD=CARTESIAN,UNITS=BOHR                                               
       MEMORY=250,MEM_UNIT=GB,CC_PROG=NCC                                       
       FROZEN_CORE=1                                                            
       CALC=CC3,BASIS=AUG-PVDZ                                                  
       SCF_CONV=8,CC_CONV=7,ESTATE_CONV=5,ESTATE_MAXCYC=120                     
       EXCITE=EOMEE,ESTATE_SYM=0/1/0/0)                                         
                                                                                
********************************************************************************
    -------------------------------------------------------------------
                    CFOUR Control Parameters 
    -------------------------------------------------------------------
        External           Internal           Value            Units
          Name               Name
    -------------------------------------------------------------------
       ABCDTYPE             IABCDT         STANDARD    [  0]    ***   
       ANHARMONIC           IANHAR         OFF         [  0]    ***   
       ANH_ALGORIT          IANALG         STANDARD    [  0]    ***   
       ANH_DERIVAT          IANDER         SECOND      [  1]    ***   
       ANH_MODE             ANHMOD         VIBRATION   [  0]    ***   
       ANH_STEPSIZ          ICUBST             50000          x 10-6  
       ANH_SYMMETR          IANHSM         ABELIAN     [  0]    ***   
       AO_LADDERS           IAOLAD         SINGLEPASS  [  1]    ***   
       AV_SCF               IAVSCF         OFF         [  0]    ***   
       BASIS                IBASIS         AUG-PVDZ    [ 33]    ***   
       BOTHVECTORS          BOTHVC         OFF         [  0]    ***   
       BOX_POTENT           IPIAB          OFF         [  0]    ***   
       BREIT                IBREIT         OFF         [  0]    ***   
       BRUCK_CONV           IBRTOL          10D-  4             ***   
       BRUECKNER            IBRKNR         OFF         [  0]    ***   
       BUFFERSIZE           IBUFFS              4096            ***   
       CACHE_RECS           ICHREC             10               ***   
       CALCLEVEL            ICLLVL         CC3         [ 32]    ***   
       CCORBOPT             ICCORB         OFF         [  0]  x 0.01  
       CC_CONV              ICCCNV          10D-  7             ***   
       CC_EXPORDER          ICCEOR              5               ***   
       CC_EXTRAPOL          ICCEXT         DIIS        [  1]    ***   
       CC_GUESS             ICCGES         MP2         [  0]    ***   
       CC_MAXCYC            ICCCYC            100              cycles 
       CC_PROGRAM           ICCPRO         NCC         [  5]    ***   
       CHARGE               ICHRGE              0               ***   
       CHOLESKY             ICHOLE         OFF         [  0]    ***   
       CIS_CONV             ICISTL              5               ***   
       COMM_SIZE            IPSIZE            ***               ***   
       CONSTANT             ICONST         OLD         [  1]    ***   
       CONTINUUM            ICONTU         NONE        [  0]    ***   
       CONTRACTION          ICNTYP         GENERAL     [  1]    ***   
       COORDINATES          ICOORD         CARTESIAN   [  1]    ***   
       CPHF_CONVER          ICPHFT          10D- 16             ***   
       CPHF_MAXCYC          ICPHFC             64              cycles 
       CUBIC                ICUBIC         OFF         [  0]    ***   
       CURVILINEAR          ICURVY         OFF         [  0]    ***   
       DBOC                 IDBOC          OFF         [  0]    ***   
       DCT                  IDCT           OFF         [  0]    ***   
       DERIV_LEV            IDRLVL         ZERO        [  0]    ***   
       DEVMEM_SIZE          IDVMEM         *********           MByte  
       DIAG_MRCC            IEOMST          10D-  0             ***   
       DIFF_TYPE            IDIFTY         RELAXED     [  0]    ***   
       DIRECT               IDIRCT         OFF         [  0]    ***   
       DROPMO               IDRPMO      NONE         
       ECP                  IECP           OFF         [  0]    ***   
       EIGENVECTOR          IVEC                1               ***   
       EL_ANHARM            IELANH         OFF         [  0]    ***   
       EOMFOLLOW            IEOMSR         ENERGY      [  0]    ***   
       EOMIP                IEOMIP         OFF         [  0]    ***   
       EOMLEVEL             HBARFM         SAME        [  0]    ***   
       EOM_MRCC             IMRCCE         NEW         [  1]    ***   
       EOM_NONIT            EOMNON         OFF         [  0]    ***   
       EOM_NSING            IEOMSI          10D-  0             ***   
       EOM_NSTATES          IMRCCD         DAVIDSON    [  0]    ***   
       EOM_NTRIP            IEOMTR          10D-  0             ***   
       EOM_ORDER            IEXORD         ENERGY      [  0]    ***   
       EOM_PROPSTA          IEOMST              0               ***   
       ESTATE_CONV          IEXTOL          10D-  5             ***   
       ESTATE_DIAG          IEXDIG         ITERATIVE   [  0]    ***   
       ESTATE_LOCK          IESLOC         ON          [  1]    ***   
       ESTATE_MAXC          IEXMXC            120               ***   
       ESTATE_PROP          IEXPRP         OFF         [  0]    ***   
       ESTATE_SYM           IEXSYM   0,  1,  0,  0,
       EVAL_HESS            IRECAL              0            # of cyc.
       EXCITATION           IEXCIT              0               ***   
       EXCITE               IEXCIT         EOMEE       [  3]    ***   
       EXTERN_POT           IEXPOT         OFF         [  0]    ***   
       FCGRADNEW            IFCGNW         OFF         [  0]    ***   
       FC_FIELD             IFINFC              0             x 10-6  
       FD_CALTYPE           IFDCAL         GRADONLY    [  0]    ***   
       FD_PROJECT           IFDPRJ         OFF         [  1]    ***   
       FD_STEPSIZE          IDISFD              0            10-4 bohr
       FD_USEGROUP          IFDGRP         FULL        [  0]    ***   
       FILE_RECSIZ          IFLREC              4096           words  
       FINITE_PERT          IFIPER              0             x 10-6  
       FIXGEOM              IFIXGM         OFF         [  0]    ***   
       FOCK                 IFOCK          AO          [  1]    ***   
       FREQ_ALGORI          IVIALG         STANDARD    [  0]    ***   
       FROZEN_CORE          IFROCO         ON          [  1]    ***   
       GAMMA_ABCD           IGABCD         STORE       [  0]    ***   
       GAMMA_ABCI           IGABCI         STORE       [  0]    ***   
       GENBAS_1             IGNBS1              0               ***   
       GENBAS_2             IGNBS2              0               ***   
       GENBAS_3             IGNBS3              0               ***   
       GENBAS_4             IGNBS4              0               ***   
       GEO_CONV             ICONTL              5              H/bohr 
       GEO_MAXCYC           IOPTCY             50               ***   
       GEO_MAXSTEP          IMXSTP            300            millibohr
       GEO_METHOD           INR            SINGLE_POINT[  5]    ***   
       GIAO                 IGIAO          OFF         [  1]    ***   
       GIMIC                IGIMIC         OFF         [  0]    ***   
       GRID                 IGRID          OFF         [  0]    ***   
       GRID_ALGO            IGALGO         SERIAL      [  0]    ***   
       GUESS                IGUESS         MOREAD      [  0]    ***   
       HBAR                 IHBAR          ON          [  1]    ***   
       HESS_TYPE            IHESTP         SCF         [  0]    ***   
       HF2_FILE             IHF2Fl         USE         [  1]    ***   
       HFSTABILITY          ISTABL         OFF         [  0]    ***   
       INCORE               INCORE         OFF         [  0]    ***   
       INPUT_MRCC           IMRCC          ON          [  1]    ***   
       INTEGRALS            INTTYP         VMOL        [  1]    ***   
       JODA_PRINT           IJPRNT              0               ***   
       KEYWORD_OUT          IDMPKW         NO          [  0]    ***   
       LINDEP_TOL           ILINDP              8               ***   
       LINEQ_CONV           IZTACN          10D-  7           cycles  
       LINEQ_EXPOR          ILMAXD              5               ***   
       LINEQ_MAXCY          ILMAXC            100               ***   
       LINEQ_TYPE           ILTYPE         DIIS        [  1]    ***   
       LOCK_ORBOCC          ILOCOC         OFF         [  0]    ***   
       MEMORY_SIZE          IMEMSZ         *********           words  
       MEM_UNIT             IMEMU          GB          [  3]    ***   
       MRCC                 IMRCCC         OFF         [  0]    ***   
       MULTIPLICTY          IMULTP              1               ***   
       NACOUPLING           IVCOUP         OFF         [  0]    ***   
       NEGEVAL              IDIE           ABORT       [  0]    ***   
       NEWNORM              INEWNO         OFF         [  0]    ***   
       NON-HF               INONHF         OFF         [  0]    ***   
       NTOP_TAMP            ITOPT2             15               ***   
       NUC_MODEL            INUCMO         POINT       [  0]    ***   
       OCCUPATION           IOCCU   ESTIMATED BY SCF 
       OPEN-SHELL           IOPEN          SPIN-ORBITAL[  0]    ***   
       OPTVIB               IOPTVB         OFF         [  0]    ***   
       ORBITALS             IORBTP         STANDARD    [  0]    ***   
       PARALLEL             IPARAL         ON          [  1]    ***   
       PARA_INT             IPINTS         ON          [  1]    ***   
       PARA_PRINT           IPPRIN              0               ***   
       PERT_ORB             IPTORB         STANDARD    [  0]    ***   
       POINTS               IGRDFD              0               ***   
       PRINT                IPRNT               0               ***   
       PROPS                IPROPS         OFF         [  0]    ***   
       PROP_INTEGR          IINTYP         INTERNAL    [  0]    ***   
       PSI                  IPSI           OFF         [  0]    ***   
       QC_ALG               IQCALG         FLM         [  0]    ***   
       QC_LINALG            IQCLIN         TRIDIAG     [  2]    ***   
       QC_MAXCYC            IQCMAX          10D-100           cycles  
       QC_MAXSCFCY          IQCMSC          10D- 15           cycles  
       QC_RTRUST            IQCRTR          10D-  0           x 10-3  
       QC_SKIPSCF           IQCSKI         OFF         [  0]    ***   
       QC_START             IQCSTA          10D-  1             ***   
       QRHFGUESS            IQGUES         OFF         [  0]    ***   
       QUARTIC              IQUART         OFF         [  0]    ***   
       RAMAN_INT            IRAMIN         OFF         [  0]    ***   
       RAMAN_ORB            IRAMRE         UNRELAXED   [  0]    ***   
       RDO                  IRDOFM         OFF         [  0]    ***   
       REDUCE_REPR          REDREP         Ir          [  0]    ***   
       REFERENCE            IREFNC         RHF         [  0]    ***   
       RELATIVIST           IRELAT         OFF         [  0]    ***   
       RELAX_DENS           IRDENS         OFF         [  0]    ***   
       RESET_FLAGS          IRESET         OFF         [  0]    ***   
       RESTART_CC           ICCRES         OFF         [  0]    ***   
       ROT_EVEC             ROTVEC              0               ***   
       SAVE_INTS            ISVINT         OFF         [  0]    ***   
       SCALE_ON             ISTCRT              0               ***   
       SCF_CONV             ISCFCV          10D-  8             ***   
       SCF_DAMPING          IDAMP               0             x 10-3  
       SCF_EXPORDE          IRPPOR              6               ***   
       SCF_EXPSTAR          IRPPLS              8               ***   
       SCF_EXTRAPO          IRPP           ON          [  1]    ***   
       SCF_MAXCYC           ISCFCY            150              cycles 
       SCF_NOSTOP           ISCFST         OFF         [  0]    ***   
       SCF_PRINT            ISCFPR              0               ***   
       SCF_PROG             ISCFPR         SCF         [  0]    ***   
       SD_FIELD             IFINSD              0             x 10-6  
       SOPERT               IPERSO         OFF         [  0]    ***   
       SPHERICAL            IDFGHI         ON          [  1]    ***   
       SPINORBIT            ISOCAL         OFF         [  0]    ***   
       SPINROTATIO          ISRCON         OFF         [  0]    ***   
       SPIN_FLIP            ISPFLP         OFF         [  0]    ***   
       SPIN_ORBIT           ISPORB         OFF         [  0]    ***   
       SPIN_SCAL            ISCSMP         OFF         [  0]    ***   
       STEEPSCALE           ISTPSC              1000          x 10-3  
       SUBGROUP             ISUBGP         DEFAULT     [  0]    ***   
       SUBGRPAXIS           ISBXYZ         X           [  0]    ***   
       SYMMETRY             ISYM           ON          [  0]    ***   
       SYM_CHECK            ISYMCK         OVERRIDE    [  1]    ***   
       T3_EXTRAPOL          IT3EXT         ON          [  1]    ***   
       T4_EXTRAPOL          IT4EXP         OFF         [  0]    ***   
       TAMP_SUM             IEVERY              5               ***   
       TESTSUITE            ITESTS         OFF         [  0]    ***   
       THERMOCH             ITHERM         OFF         [  0]    ***   
       TOL_CHOLESK          ITOLCH          10D-  4             ***   
       TRANGRAD             IRESRM         OFF         [  0]    ***   
       TRANS_INV            ITRAIN         USE         [  0]    ***   
       TREAT_PERT           ITREAT         SIMULTANEOUS[  0]    ***   
       TRIP_ALGORI          ITRALG         NORMAL      [  0]    ***   
       UIJ_THRESHO          IUIJTH              1               ***   
       UNITS                IUNITS         BOHR        [  1]    ***   
       UNOS                 IUNOS          OFF         [  0]    ***   
       UPDATE_HESS          IHUPDT         ON          [  1]    ***   
       VIBPHASE             ISETPH         STANDARD    [  0]    ***   
       VIBRATION            IVIB           NO          [  0]    ***   
       VIB_ALGORIT          IGEALG         STANDARD    [  0]    ***   
       VNATORB              IVNORB         OFF         [  0]    ***   
       VTRAN                IVTRAN         FULL/PARTIAL[  0]    ***   
       XFIELD               IXEFLD              0             x 10-6  
       XFORM_TOL            IXFTOL          10D- 11             ***   
       YFIELD               IYEFLD              0             x 10-6  
       ZFIELD               IZEFLD              0             x 10-6  
       ZSCALE_EXP           IZEXPS         OFF         [  0]    ***   
    -------------------------------------------------------------------
  @GETXYZ-I,     2 atoms read from ZMAT.
   Rotational constants (in cm-1): 
         10.5830905500            10.5830905500
   Rotational constants (in MHz): 
     317273.1173699838        317273.1173699838
********************************************************************************
   The full molecular point group is CXv .
   The largest Abelian subgroup of the full molecular point group is C2v .
   The computational point group is C2v .
********************************************************************************


 ----------------------------------------------------------------
         Coordinates used in calculation (QCOMP) 
 ----------------------------------------------------------------
 Z-matrix   Atomic            Coordinates (in bohr)
  Symbol    Number           X              Y              Z
 ----------------------------------------------------------------
     CL       17        -0.00000000     0.00000000     0.06750444
     H         1         0.00000000     0.00000000    -2.34222479
 ----------------------------------------------------------------
 
   Interatomic distance matrix (Angstroms) 
 
                 CL            H    
                [ 1]        [ 2]
  CL   [ 1]     0.00000
  H    [ 2]     1.27517     0.00000
 rotcon2
   Rotational constants (in cm-1): 
         10.5830905500             0.0000000000
   Rotational constants (in MHz): 
     317273.1173699838             0.0000000000
  There are   5 frozen-core orbitals.
  There are   36 basis functions.
 @GEOPT-W, Archive file not created for single-point calculation.
 @CHECKOUT-I, Total execution time (CPU/WALL):        0.18/       3.14 seconds.
--executable xjoda finished with status     0 in        6.32 seconds (walltime).
 --invoking executable--
/home/CEISAM/blondel-a/soft/cfour2.1/cfour2.1-serial-mkl/bin/xvmol
 SERIAL VERSION OF MOLECULE STARTED
********************************************************************************
                    INPUT FROM MOL FILE
********************************************************************************
INTGRL        1    0    1    0    0    0    0    0    0                         
         *** CFOUR Program System (Release V0.1) ***                            
Ketene -GS                                                                      
    2    2 X  Y       0.10E-08              0    0                              
   9999.00      3.00                                                            
         17.00000000    1    3    1    1    1                                   
CL#1  -0.000000000000000   0.000000000000000   0.067504438739180                
   13    5                                                                      
   127900.000000000       2.411500000000000E-004 -6.789000000000000E-005        
  2.050000000000000E-005  0.000000000000000E+000  0.000000000000000E+000        
   19170.0000000000       1.870950000000000E-003 -5.218400000000000E-004        
  1.583000000000000E-004  0.000000000000000E+000  0.000000000000000E+000        
   4363.00000000000       9.708270000000000E-003 -2.765130000000000E-003        
  8.336400000000000E-004  0.000000000000000E+000  0.000000000000000E+000        
   1236.00000000000       3.931530000000000E-002 -1.115370000000000E-002        
  3.398800000000000E-003  0.000000000000000E+000  0.000000000000000E+000        
   403.600000000000       0.125932000000000      -3.859190000000000E-002        
  1.167380000000000E-002  0.000000000000000E+000  0.000000000000000E+000        
   145.700000000000       0.299341000000000      -9.948480000000000E-002        
  3.096220000000000E-002  0.000000000000000E+000  0.000000000000000E+000        
   56.8100000000000       0.421886000000000      -0.201392000000000             
  6.295330000000000E-002  0.000000000000000E+000  0.000000000000000E+000        
   23.2300000000000       0.237201000000000      -0.130313000000000             
  4.602570000000000E-002  0.000000000000000E+000  0.000000000000000E+000        
   6.64400000000000       1.915310000000000E-002  0.509443000000000             
 -0.219312000000000       0.000000000000000E+000  0.000000000000000E+000        
   2.57500000000000      -3.347920000000000E-003  0.610725000000000             
 -0.408773000000000       0.000000000000000E+000  0.000000000000000E+000        
  0.537100000000000       9.298800000000000E-004  4.215490000000000E-002        
  0.638465000000000       0.000000000000000E+000  0.000000000000000E+000        
  0.193800000000000      -3.963800000000000E-004 -9.234269999999999E-003        
  0.562362000000000        1.00000000000000       0.000000000000000E+000        
  6.080000000000000E-002  0.000000000000000E+000  0.000000000000000E+000        
  0.000000000000000E+000  0.000000000000000E+000   1.00000000000000             
    9    4                                                                      
   417.600000000000       5.259820000000000E-003 -1.435700000000000E-003        
  0.000000000000000E+000  0.000000000000000E+000                                
   98.3300000000000       3.983320000000000E-002 -1.077960000000000E-002        
  0.000000000000000E+000  0.000000000000000E+000                                
   31.0400000000000       0.164655000000000      -4.700750000000000E-002        
  0.000000000000000E+000  0.000000000000000E+000                                
   11.1900000000000       0.387322000000000      -0.111030000000000             
  0.000000000000000E+000  0.000000000000000E+000                                
   4.24900000000000       0.457072000000000      -0.153275000000000             
  0.000000000000000E+000  0.000000000000000E+000                                
   1.62400000000000       0.151636000000000       8.946090000000000E-002        
  0.000000000000000E+000  0.000000000000000E+000                                
  0.532200000000000       1.816150000000000E-003  0.579444000000000             
  0.000000000000000E+000  0.000000000000000E+000                                
  0.162000000000000       1.882960000000000E-003  0.483272000000000             
   1.00000000000000       0.000000000000000E+000                                
  4.660000000000000E-002  0.000000000000000E+000  0.000000000000000E+000        
  0.000000000000000E+000   1.00000000000000                                     
    2    2                                                                      
  0.600000000000000        1.00000000000000       0.000000000000000E+000        
  0.196000000000000       0.000000000000000E+000   1.00000000000000             
          1.00000000    1    2    1    1                                        
H #2   0.000000000000000   0.000000000000000  -2.342224785360820                
    5    3                                                                      
   13.0100000000000       1.968500000000000E-002  0.000000000000000E+000        
  0.000000000000000E+000                                                        
   1.96200000000000       0.137977000000000       0.000000000000000E+000        
  0.000000000000000E+000                                                        
  0.444600000000000       0.478148000000000       0.000000000000000E+000        
  0.000000000000000E+000                                                        
  0.122000000000000       0.501240000000000        1.00000000000000             
  0.000000000000000E+000                                                        
  2.974000000000000E-002  0.000000000000000E+000  0.000000000000000E+000        
   1.00000000000000                                                             
    2    2                                                                      
  0.727000000000000        1.00000000000000       0.000000000000000E+000        
  0.141000000000000       0.000000000000000E+000   1.00000000000000             
FINISH                                                                          
 
********************************************************************************
 ONE- AND TWO-ELECTRON INTEGRALS OVER SYMMETRY-ADAPTED AOS ARE CALCULATED.

  SPHERICAL HARMONICS ARE USED.
  
  INTEGRALS LESS THAN  0.10E-13 ARE NEGLECTED.

  NUCLEAR REPULSION ENERGY :    7.0547345444 A.U.
  @MOLECU-I, ONE ELECTRON INTEGRALS (CPU/WALL):        0.02/       0.05 SECONDS.
  @TWOEL-I,       9924 INTEGRALS OF SYMMETRY TYPE  I I I I
  @TWOEL-I,      20234 INTEGRALS OF SYMMETRY TYPE  I J I J
  @TWOEL-I,      12049 INTEGRALS OF SYMMETRY TYPE  I I J J
  @TWOEL-I,       5376 INTEGRALS OF SYMMETRY TYPE  I J K L
  @TWOEL-I, TOTAL NUMBER OF 2-E INTEGRALS      47583.
  @MOLECU-I, TWO ELECTRON INTEGRALS (CPU/WALL):        1.50/       0.09 SECONDS.
 @CHECKOUT-I, Total execution time (CPU/WALL):        1.55/       0.15 seconds.

Running with 20 threads/proc

--executable xvmol finished with status     0 in        1.39 seconds (walltime).
 --invoking executable--
/home/CEISAM/blondel-a/soft/cfour2.1/cfour2.1-serial-mkl/bin/xvmol2ja
 @GETMEM-I,  Allocated  238418 MB of main memory.
 @CHECKOUT-I, Total execution time (CPU/WALL):        0.03/       0.97 seconds.
--executable xvmol2ja finished with status     0 in        3.91 seconds (walltime).
 --invoking executable--
/home/CEISAM/blondel-a/soft/cfour2.1/cfour2.1-serial-mkl/bin/xvscf
  There are   36 functions in the AO basis.

  There are 4 irreducible representations.

       Irrep        # of functions
         1                 18
         2                  8
         3                  8
         4                  2


  Parameters for SCF calculation: 
        SCF reference function:  RHF  
  Maximum number of iterations:  150
     Full symmetry point group: CXv 
     Computational point group: C2v 
        Initial density matrix: MOREAD                 
     SCF convergence tolerance: 10**(- 8)
  DIIS convergence acceleration:  ON
          Latest start for DIIS:   8
                     DIIS order:   6

  Memory information:      90074 words required.
  Fock matrices are constructed from AO integral file.
 @GETMEM-I,  Allocated       0 MB of main memory.
  Initialization and symmetry analysis required      0.003 seconds.

  @INITGES-I, Occupancies from core Hamiltonian:

          Alpha population by irrep:   5    2    2    0
           Beta population by irrep:   5    2    2    0


 total no. of electrons in initial guess :  0.000000000000000E+000
  --------------------------------------------------------------------
  Iteration         Total Energy            Largest Density Difference
  --------------------------------------------------------------------
       0             7.054734544437980              0.0000000000D+00
   current occupation vector 
     5  2  2  0
     5  2  2  0
       1          -455.094583428475232              0.2322543438D+02
   current occupation vector 
     5  2  2  0
     5  2  2  0
       2          -456.230844290125390              0.2312674324D+02
   current occupation vector 
     6  2  1  0
     6  2  1  0
       3          -459.219739841885826              0.8485435853D+01
   current occupation vector 
     5  2  2  0
     5  2  2  0
       4          -459.960446886315196              0.3346973667D+01
   current occupation vector 
     5  2  2  0
     5  2  2  0
       5          -460.075998175309508              0.8582168946D+00
   current occupation vector 
     5  2  2  0
     5  2  2  0
       6          -460.092461592453219              0.3042431922D+00
   current occupation vector 
     5  2  2  0
     5  2  2  0
       7          -460.092606274080651              0.1962142432D-01
   current occupation vector 
     5  2  2  0
     5  2  2  0
       8          -460.092616615238398              0.6572071144D-02
   current occupation vector 
     5  2  2  0
     5  2  2  0
       9          -460.092617195546154              0.1731914498D-02
   current occupation vector 
     5  2  2  0
     5  2  2  0
      10          -460.092617204012811              0.1383253006D-03
   current occupation vector 
     5  2  2  0
     5  2  2  0
      11          -460.092617204095632              0.1489374329D-04
   current occupation vector 
     5  2  2  0
     5  2  2  0
      12          -460.092617204098985              0.1653542293D-05
   current occupation vector 
     5  2  2  0
     5  2  2  0
      13          -460.092617204100577              0.8070480251D-06
   current occupation vector 
     5  2  2  0
     5  2  2  0
      14          -460.092617204099838              0.1043821376D-06
   current occupation vector 
     5  2  2  0
     5  2  2  0
      15          -460.092617204099895              0.1866597343D-07
   current occupation vector 
     5  2  2  0
     5  2  2  0

  SCF has converged.

 Density matrix saved to file den.dat
 total electron number:   18.0000000000000     
     E(SCF)=      -460.092617204100520              0.4988718771D-08

  Eigenvector printing suppressed.

 @PUTMOS-I, Writing converged MOs to NEWMOS. 
 @PUTMOS-I, Symmetry   1 Full Blocks  4 Partial Blocksize   2
 @PUTMOS-I, Symmetry   2 Full Blocks  2 Partial Blocksize   0
 @PUTMOS-I, Symmetry   3 Full Blocks  2 Partial Blocksize   0
 @PUTMOS-I, Symmetry   4 Full Blocks  0 Partial Blocksize   2
 @PUTFOCK-I, Writing converged Fock matrix to NEWFOCK. 
 @PUTFOCK-I, Symmetry   1 Full Blocks  4 Partial Blocksize   2
 @PUTFOCK-I, Symmetry   2 Full Blocks  2 Partial Blocksize   0
 @PUTFOCK-I, Symmetry   3 Full Blocks  2 Partial Blocksize   0
 @PUTFOCK-I, Symmetry   4 Full Blocks  0 Partial Blocksize   2


 
  ORBITAL EIGENVALUES (ALPHA)  (1H = 27.2113834 eV)

       MO #        E(hartree)               E(eV)           FULLSYM    COMPSYM
       ----   --------------------   --------------------   -------   ---------
    1     1        -104.8508632321       -2853.1370392294     SG+        A1 (1)
    2     2         -10.5767592881        -287.8082521168     SG+        A1 (1)
    3     3          -8.0447038373        -218.9075204569     SG+        A1 (1)
    4    27          -8.0411470652        -218.8107357672      PI        B2 (3)
    5    19          -8.0411470652        -218.8107357670      PI        B1 (2)
    6     4          -1.1197286007         -30.4693642581     SG+        A1 (1)
    7     5          -0.6265440464         -17.0491302637     SG+        A1 (1)
    8    20          -0.4774522292         -12.9921356650      PI        B1 (2)
    9    28          -0.4774522291         -12.9921356607      PI        B2 (3)
  +++++++++++++++++++++++++++++++++++++++++++++++++++++++++++++++++++++++++++++
   10     6           0.0352680432           0.9596922466     SG+        A1 (1)
   11     7           0.1258357349           3.4241644265     SG+        A1 (1)
   12    21           0.1381264078           3.7586106393      PI        B1 (2)
   13    29           0.1381264078           3.7586106403      PI        B2 (3)
   14     8           0.1822136138           4.9582845048     SG+        A1 (1)
   15     9           0.2148393823           5.8460768014     SG+        A1 (1)
   16    30           0.3196337879           8.6976775502      PI        B2 (3)
   17    22           0.3196337879           8.6976775506      PI        B1 (2)
   18    35           0.4712606027          12.8236529416      DE        A2 (4)
   19    10           0.4712606027          12.8236529416      DE        A1 (1)
   20    11           0.4924099711          13.3991565134     SG+        A1 (1)
   21    12           0.5746459690          15.6369117808     SG+        A1 (1)
   22    23           0.6085085567          16.5583596394      PI        B1 (2)
   23    31           0.6085085567          16.5583596395      PI        B2 (3)
   24    13           0.8963347652          24.3905089510     SG+        A1 (1)
   25    24           0.9238466152          25.1391444493      PI        B1 (2)
   26    32           0.9238466153          25.1391444517      PI        B2 (3)
   27    14           1.0330993673          28.1120629746     SG+        A1 (1)
   28    25           1.3852674334          37.6950432424      PI        B1 (2)
   29    33           1.3852674334          37.6950432426      PI        B2 (3)
   30    36           1.3857758071          37.7088767948      DE        A2 (4)
   31    15           1.3857758071          37.7088767948      DE        A1 (1)
   32    16           1.4517410475          39.5038822411     SG+        A1 (1)
   33    17           1.7914471224          48.7477544876     SG+        A1 (1)
   34    26           1.8602559159          50.6201369491      PI        B1 (2)
   35    34           1.8602559159          50.6201369492      PI        B2 (3)
   36    18           2.4368674137          66.3105334884     SG+        A1 (1)


  VSCF finished.

 @CHECKOUT-I, Total execution time (CPU/WALL):        0.07/       0.39 seconds.
--executable xvscf finished with status     0 in        2.69 seconds (walltime).
 --invoking executable--
/home/CEISAM/blondel-a/soft/cfour2.1/cfour2.1-serial-mkl/bin/xvtran
 @GETMEM-I,  Allocated  238418 MB of main memory.
  Full RHF integral transformation
  The following   5 MOs will be dropped:
    1  2  3  6  8
  There are  31 active molecular orbitals.
  Transformation of IIII integrals :
  1 pass through the AO integral file was required.
        9924 AO integrals were read.
        8078 MO integrals were written to HF2.
  Transformation of IIJJ integrals :
  1 pass through the AO integral file was required.
       12049 AO integrals were read.
        8032 MO integrals were written to HF2.
  Transformation of IJIJ integrals :
  1 pass through the AO integral file was required.
       20234 AO integrals were read.
       13030 MO integrals were written to HF2.
  Transformation of IJKL integrals :
  1 pass through the AO integral file was required.
        5376 AO integrals were read.
        4410 MO integrals were written to HF2.
  Summary of active molecular orbitals: 
------------------------------------------------------------------------
 
  Index      Eigenvalue    Symmetry    Index      Eigenvalue    Symmetry
------------------------------------------------------------------------
     1        -1.1197286        1        17         2.4368674        1
     2        -0.6265440        1        18         0.1381264        2
     3        -0.4774522        2        19         0.3196338        2
     4        -0.4774522        3        20         0.6085086        2
     5         0.0352680        1        21         0.9238466        2
     6         0.1258357        1        22         1.3852674        2
     7         0.1822136        1        23         1.8602559        2
     8         0.2148394        1        24         0.1381264        3
     9         0.4712606        1        25         0.3196338        3
    10         0.4924100        1        26         0.6085086        3
    11         0.5746460        1        27         0.9238466        3
    12         0.8963348        1        28         1.3852674        3
    13         1.0330994        1        29         1.8602559        3
    14         1.3857758        1        30         0.4712606        4
    15         1.4517410        1        31         1.3857758        4
    16         1.7914471        1
------------------------------------------------------------------------
  -1.11972860071731      -0.626544046405475      -0.477452229238627     
 -0.477452229081073       3.526804324712400E-002  0.125835734853982     
  0.182213613761346       0.214839382308828       0.471260602708830     
  0.492409971091460       0.574645968967092       0.896334765214602     
   1.03309936732629        1.38577580714932        1.45174104750178     
   1.79144712236841        2.43686741367224       0.138126407762113     
  0.319633787915652       0.608508556732263       0.923846615210832     
   1.38526743342215        1.86025591587929       0.138126407800384     
  0.319633787903725       0.608508556735502       0.923846615298814     
   1.38526743342999        1.86025591588375       0.471260602708822     
   1.38577580714930     
 @CHECKOUT-I, Total execution time (CPU/WALL):        0.05/       0.16 seconds.
--executable xvtran finished with status     0 in        4.34 seconds (walltime).
 --invoking executable--
/home/CEISAM/blondel-a/soft/cfour2.1/cfour2.1-serial-mkl/bin/xintprc
 @GETMEM-I,  Allocated  238418 MB of main memory.
  @GMOIAA-I, Processing MO integrals for spin case AA.
  @GMOIAA-I, Generation of integral list completed.
                      TYPE                NUMBER
                      ----               --------
                      PPPP                 19459
                      PPPH                 11020
                      PPHH                  1633
                      PHPH                  1102
                      PHHH                   314
                      HHHH                    22

                     TOTAL                 33550

  @FORMT2-I, Second-order MP correlation energies:
            ------------------------------------------------
            E(SCF)                  =   -460.092617204101 a.u.
            E2(AA)                  =     -0.019966852294 a.u.
            E2(AB)                  =     -0.119171106135 a.u.
            E2(TOT)                 =     -0.159104810724 a.u.
            Total MP2 energy        =   -460.251722014825 a.u.
            ------------------------------------------------
   Largest T2 amplitudes for spin case AB:
       _       _                 _       _                 _       _
   i   j   a   b             i   j   a   b             i   j   a   b
-----------------------------------------------------------------------------
[  2   2   7   7]-0.03313 [  4   4   9   9]-0.02619 [  4   4  30  30]-0.02619
[  3   3  30  30]-0.02619 [  3   3   9   9]-0.02619 [  4   4  27  27]-0.02496
[  3   3  21  21]-0.02496 [  2   2  12  12]-0.02114 [  2   2  10  10]-0.02016
[  3   4  21  27]-0.01821 [  4   3  27  21]-0.01821 [  4   4  26  26]-0.01797
[  3   3  20  20]-0.01797 [  2   2   8   7] 0.01724 [  2   2   7   8] 0.01724
-----------------------------------------------------------------------------
   Norm of T2AB vector (     3158 symmetry allowed elements):  0.2144829556.
-----------------------------------------------------------------------------
 @CHECKOUT-I, Total execution time (CPU/WALL):        0.04/       0.12 seconds.
--executable xintprc finished with status     0 in        1.36 seconds (walltime).
  calling xncc 
 --invoking executable--
/home/CEISAM/blondel-a/soft/cfour2.1/cfour2.1-serial-mkl/bin/xncc
 @GETMEM-I,  Allocated       7 MB of main memory.

Running with 20 threads/proc

Following the lowest-energy eigenvector.
Using a partitioned Davidson procedure.
Using discrete restarting.
Using an orthogonal subspace.
Orthogonalizing against previous roots.
Using Modified Gram-Schmidt orthogonalization.

Using DIIS to accelerate the convergence of T1 and T2
Using immediate high-order contributions
Performing 3 CCSD sub-iterations
Damping factor for T3: 0.000000
Damping factor for T4: 0.000000

Transposes are coarse-threaded

Memory limit:                232.831 GiB
Minimum memory requirement:    2.139 MiB
Compromise memory amount:      2.619 MiB
Optimal memory requirement:    5.676 MiB

List              Location   Size        Cached Hunks Est. Disk I/O
----------------- ---------- ----------- ------ ----- -------------

           HR_DAV      470:1  774.031 KiB    Yes     -   367.448 MiB
                R        471   22.992 KiB    Yes     -     2.021 MiB
            R_DAV      470:0  774.031 KiB    Yes     -   668.098 MiB
           T_DIIS       70:0  124.844 KiB    Yes     -     2.195 MiB
           Z_DIIS       70:1  124.844 KiB    Yes     -     3.658 MiB
          <AI|bj>         18   24.672 KiB    Yes     -     4.034 MiB
          <Ab|Cd>        233    1.070 MiB    Yes     -   104.826 MiB
          <Ab|Ci>         30  164.172 KiB    Yes     -   123.610 MiB
          <Ab|Ij>         16   24.672 KiB    Yes     -    21.732 MiB
          <Ai|Bj>         25   24.672 KiB    Yes     -     3.373 MiB
          <Aj|bI>         21   24.672 KiB     No     -         0   B
          <Ij|Ka>         10    3.719 KiB    Yes     -     3.639 MiB
          <Ij|Kl>         13      576   B    Yes     -    44.438 KiB
           DD(AI)      448:8      304   B    Yes     -     3.375 KiB
        DD(Ab,Ij)        450   24.672 KiB    Yes     -   364.500 KiB
            F(EA)       92:0    1.914 KiB    Yes     -   840.273 KiB
            F(EM)       93:0      304   B    Yes     -   103.906 KiB
            F(MI)       91:0       48   B    Yes     -    23.391 KiB
           HR(AI)      490:2      304   B    Yes     -   237.305 KiB
        HR(Ab,Ij)        463   24.672 KiB    Yes     -    38.377 MiB
            Q(AI)      190:2      304   B    Yes     -    48.984 KiB
         Q(Ab,Ij)         50   24.672 KiB    Yes     -    13.372 MiB
            R(AI)      490:0      304   B    Yes     -   518.906 KiB
         R(Ab,Ij)        446   24.672 KiB    Yes     -    59.734 MiB
            T(AI)       90:0      304   B    Yes     -   375.547 KiB
         T(Ab,Ij)         46   24.672 KiB    Yes     -    32.743 MiB
         W(Mn,Ij)         53      576   B    Yes     -    77.062 KiB
        W~(Ab,Ej)        130  164.172 KiB    Yes     -    57.733 MiB
        W~(EM,bj)         56   24.672 KiB    Yes     -     7.890 MiB
        W~(Em,Bj)         58   24.672 KiB    Yes     -     7.806 MiB
        W~(Ij,Mb)        110    3.719 KiB    Yes     -     1.304 MiB
       W~~(Ab,Ef)         33    1.070 MiB    Yes     -    18.184 MiB
       W~~(Ab,Ej)        169  164.172 KiB    Yes     -    85.904 MiB
       W~~(EM,bj)         76   24.672 KiB    Yes     -     2.554 MiB
       W~~(Em,Bj)         78   24.672 KiB    Yes     -     2.554 MiB
       W~~(Ij,Mb)        165    3.719 KiB    Yes     -   743.750 KiB
       W~~(Mn,Ij)        153      576   B    Yes     -     9.000 KiB
         X(Ab,Ej)        430  164.172 KiB    Yes     -    42.789 MiB
         X(Ab,Ij)        416   24.672 KiB     No     -         0   B
            X(EA)      492:0    1.914 KiB    Yes     -   126.562 KiB
            X(EM)      493:0      304   B    Yes     -    15.820 KiB
         X(EM,bj)        418   24.672 KiB     No     -         0   B
         X(Ef,Am)        469  164.172 KiB     No     -         0   B
         X(Em,Bj)        425   24.672 KiB     No     -         0   B
         X(Ij,Mb)        410    3.719 KiB    Yes     -   556.875 KiB
            X(MI)      491:0       48   B    Yes     -     2.812 KiB
         X(Mn,Ie)        465    3.719 KiB     No     -         0   B
         X(Mn,Ij)        413      576   B    Yes     -    15.000 KiB
            Z(AI)       90:2      304   B    Yes     -   138.047 KiB
         Z(Ab,Ij)         63   24.672 KiB    Yes     -    11.204 MiB
      HR(abc,ijk)          -  635.891 KiB     No     1         0   B
       T(abc,ijk)          -  635.891 KiB     No     1         0   B
       Z(abc,ijk)          -  635.891 KiB     No     1         0   B

Simulation and memory analysis took 0.068 seconds

MP2 correlation energy:  -0.159104810724018

Non-iterative calculation of MP2 took 0.004 cpu seconds and 0.000 walltime seconds at 0.607 Gflops/sec

Total MP2 energy: -460.251722014824566

Beginning iterative solution of CC3 equations:

It.  Correlation Energy T1 Residual T2 Residual CPU Time (s) Walltime (s)
-------------------------------------------------------------------------
  1  -0.179144837320419 6.73272e-04 2.30158e-03        1.958        0.099
  2  -0.179565579730074 9.74016e-05 1.74804e-04        1.303        0.065
  3  -0.179584863942783 1.20460e-05 1.37828e-05        1.280        0.064
  4  -0.179585469182529 1.27306e-06 1.43009e-06        1.236        0.062
  5  -0.179585483403741 1.11586e-07 1.46208e-07        1.241        0.062

   A    I                     A    I                     A    I                  
-------------------------- -------------------------- -------------------------- 
  17    8  0.0069713016531   13    9  0.0059053899109   24    7 -0.0025158227907 
  16    9  0.0069713016486   27    7 -0.0048917928405   21    6 -0.0024530570499 
  20    7 -0.0064274409475   11    7 -0.0029526349649   15    7 -0.0020010217192 
  32    7 -0.0063656839497   33    6  0.0027897603589   10    7 -0.0017076654853 
  12    8  0.0059053899195   33    7  0.0027490203568   36    6 -0.0016286025293 

   A    B    I    J                     A    B    I    J                  
------------------------------------ ------------------------------------ 
  14   14    7    7 -0.0460729561627   20   20    7    7 -0.0241640223319 
  19   19    9    9 -0.0303481499778   14   15    7    7  0.0231709661547 
  18   18    9    9 -0.0303481499734   15   14    7    7  0.0231709661547 
  18   18    8    8 -0.0303481499615   24   14    7    7 -0.0229981587042 
  19   19    8    8 -0.0303481499571   14   24    7    7 -0.0229981587042 
  26   26    9    9 -0.0281550836669   20   14    7    7  0.0218171896963 
  25   25    8    8 -0.0281550836648   14   20    7    7  0.0218171896963 
  24   24    7    7 -0.0244458917237 

It.  Correlation Energy T1 Residual T2 Residual CPU Time (s) Walltime (s)
-------------------------------------------------------------------------
  6  -0.179585485165611 1.02337e-08 1.50705e-08        1.251        0.063

CC3 iterations converged in 6 cycles and 0.416 seconds (0.069 s/it.) at 0.572 Gflops/sec

Total CC3 energy: -460.272202689266123

             _
Formation of H took 0.049 seconds at 0.710 Gflops/sec

Searching for 1 roots in irrep 2

EOMEE-CCSD guess vector:

   A    I                  
-------------------------- 
  10    8  1.0000000000000 

Beginning iterative solution of EOMEE-CC3 equations:

It.  Correlation Energy R1 Residual R2 Residual CPU Time (s) Walltime (s)
-------------------------------------------------------------------------
  1   0.400955186617106 3.44721e-02 5.46670e-02        4.602        0.926
  2   0.334017282730880 9.48207e-02 2.40568e-02        1.381        0.070
  3   0.307197162220806 2.77263e-02 1.15589e-02        1.079        0.054
  4   0.293009538138656 2.26462e-02 4.82955e-03        1.089        0.055
  5   0.288984163352834 1.58156e-02 2.10464e-03        1.127        0.056
  6   0.287583444990909 4.25779e-03 1.11714e-03        1.186        0.059
  7   0.287377933706461 4.82706e-04 4.05135e-04        1.450        0.073
  8   0.287328015814670 3.66301e-04 1.49477e-04        1.304        0.065
Locking on root: 0.287330145478081
  9   0.287330145478081 1.98522e-04 3.86674e-05        4.927        0.285
 10   0.287329142348031 1.07971e-04 1.37024e-05        1.526        0.077
 11   0.287328973591016 2.60524e-05 9.45911e-06        1.592        0.080
 12   0.287329500976767 3.29135e-06 2.01816e-06        1.683        0.084

EOMEE-CC3 iterations converged in 12 cycles and 1.885 seconds (0.157 s/it.) at 0.377 Gflops/sec

EOMEE-CC3 excitation energy:   0.287329500976739 (  7.818633213208718 eV)
Total EOMEE-CC3 energy:      -459.984873188289384

Converged root:

   A    I                     A    I                     A    I                  
-------------------------- -------------------------- -------------------------- 
  10    8 -0.5429945387432   24    8 -0.0351163911760   17    7  0.0094569033617 
  14    8 -0.4056172010769   15    8  0.0241753222271   31    8  0.0079160669091 
  20    8  0.0472381995080   18    9  0.0149934198427   30    9  0.0079160669075 
  11    8  0.0469257917839   19    8  0.0149934198411   33    8 -0.0061295348203 
  21    8  0.0431411190913   27    8 -0.0117847794055   17    6  0.0055198343532 

   A    B    I    J                     A    B    I    J                  
------------------------------------ ------------------------------------ 
  14   14    8    7 -0.0457847394647   25   10    8    8 -0.0307443766493 
  14   14    7    8 -0.0457847394647   10   25    8    8 -0.0307443766493 
  12   10    8    8  0.0415080524577   14   14    8    6 -0.0281404328020 
  10   12    8    8  0.0415080524577   14   14    6    8 -0.0281404328020 
  10   14    8    7 -0.0404512232311   10   14    8    6 -0.0259490142443 
  14   10    7    8 -0.0404512232311   14   10    6    8 -0.0259490142443 
  13   10    9    8  0.0319077304077   26   10    9    8 -0.0250448636382 
  10   13    8    9  0.0319077304077 

 @CHECKOUT-I, Total execution time (CPU/WALL):       32.64/       2.98 seconds.
--executable xncc finished with status     0 in        4.51 seconds (walltime).
  The final electronic energy is      -459.984873188289384 a.u. 
  This computation required                           26.52 seconds (walltime).
