 --invoking executable--
/home/CEISAM/blondel-a/soft/cfour2.1/cfour2.1-serial-mkl/bin/xjoda


   *************************************************************************
         <<<     CCCCCC     CCCCCC   |||     CCCCCC     CCCCCC   >>>
       <<<      CCC        CCC       |||    CCC        CCC         >>>
      <<<      CCC        CCC        |||   CCC        CCC            >>>
    <<<        CCC        CCC        |||   CCC        CCC              >>>
      <<<      CCC        CCC        |||   CCC        CCC            >>>
       <<<      CCC        CCC       |||    CCC        CCC         >>>
         <<<     CCCCCC     CCCCCC   |||     CCCCCC     CCCCCC   >>>
   *************************************************************************

     ****************************************************************
     * CFOUR Coupled-Cluster techniques for Computational Chemistry *
     ****************************************************************
 

   Department of Chemistry                Institut fuer Physikalische Chemie
   University of Florida                  Universitaet Mainz
   Gainesville, FL 32611, USA             D-55099 Mainz, Germany

   Department of Chemistry                Fakultaet fuer Chemie und Biowiss.
   Johns Hopkins University               Karlsruher Institut fuer Technologie
   Baltimore, MD 21218, USA               D-76131 Karlsruhe, Germany

   Department of Chemistry                Department of Physical Chemistry
   Southern Methodist University          Eotvos Lorand University
   Dallas, TX 75275, USA                  H-1053 Budapest, Hungary

 
                       Version 2.1
 
                     cribbar041                                        
                     Mon May  3 07:57:20 CEST 2021                     
                     integer*8 version is running
 
********************************************************************************
*                          Input from ZMAT file                                *
********************************************************************************
Ketene -GS                                                                      
Cl    0.0000000000            0.0000000000           -0.0248978291              
H     0.0000000000            0.0000000000            2.3848313950              
                                                                                
*CFOUR(COORD=CARTESIAN,UNITS=BOHR                                               
       MEMORY=250,MEM_UNIT=GB,CC_PROG=ECC                                       
       FROZEN_CORE=1                                                            
       CALC=CC2,BASIS=AUG-PVDZ                                                  
       SCF_CONV=8,CC_CONV=7,ESTATE_CONV=5,ESTATE_MAXCYC=120                     
       EXCITE=EOMEE,ESTATE_SYM=0/1/0/0)                                         
                                                                                
********************************************************************************
    -------------------------------------------------------------------
                    CFOUR Control Parameters 
    -------------------------------------------------------------------
        External           Internal           Value            Units
          Name               Name
    -------------------------------------------------------------------
       ABCDTYPE             IABCDT         STANDARD    [  0]    ***   
       ANHARMONIC           IANHAR         OFF         [  0]    ***   
       ANH_ALGORIT          IANALG         STANDARD    [  0]    ***   
       ANH_DERIVAT          IANDER         SECOND      [  1]    ***   
       ANH_MODE             ANHMOD         VIBRATION   [  0]    ***   
       ANH_STEPSIZ          ICUBST             50000          x 10-6  
       ANH_SYMMETR          IANHSM         ABELIAN     [  0]    ***   
       AO_LADDERS           IAOLAD         SINGLEPASS  [  1]    ***   
       AV_SCF               IAVSCF         OFF         [  0]    ***   
       BASIS                IBASIS         AUG-PVDZ    [ 33]    ***   
       BOTHVECTORS          BOTHVC         OFF         [  0]    ***   
       BOX_POTENT           IPIAB          OFF         [  0]    ***   
       BREIT                IBREIT         OFF         [  0]    ***   
       BRUCK_CONV           IBRTOL          10D-  4             ***   
       BRUECKNER            IBRKNR         OFF         [  0]    ***   
       BUFFERSIZE           IBUFFS              4096            ***   
       CACHE_RECS           ICHREC             10               ***   
       CALCLEVEL            ICLLVL         CC2         [ 31]    ***   
       CCORBOPT             ICCORB         OFF         [  0]  x 0.01  
       CC_CONV              ICCCNV          10D-  7             ***   
       CC_EXPORDER          ICCEOR              5               ***   
       CC_EXTRAPOL          ICCEXT         DIIS        [  1]    ***   
       CC_GUESS             ICCGES         MP2         [  0]    ***   
       CC_MAXCYC            ICCCYC            100              cycles 
       CC_PROGRAM           ICCPRO         VCC         [  0]    ***   
       CHARGE               ICHRGE              0               ***   
       CHOLESKY             ICHOLE         OFF         [  0]    ***   
       CIS_CONV             ICISTL              5               ***   
       COMM_SIZE            IPSIZE            ***               ***   
       CONSTANT             ICONST         OLD         [  1]    ***   
       CONTINUUM            ICONTU         NONE        [  0]    ***   
       CONTRACTION          ICNTYP         GENERAL     [  1]    ***   
       COORDINATES          ICOORD         CARTESIAN   [  1]    ***   
       CPHF_CONVER          ICPHFT          10D- 16             ***   
       CPHF_MAXCYC          ICPHFC             64              cycles 
       CUBIC                ICUBIC         OFF         [  0]    ***   
       CURVILINEAR          ICURVY         OFF         [  0]    ***   
       DBOC                 IDBOC          OFF         [  0]    ***   
       DCT                  IDCT           OFF         [  0]    ***   
       DERIV_LEV            IDRLVL         ZERO        [  0]    ***   
       DEVMEM_SIZE          IDVMEM         *********           MByte  
       DIAG_MRCC            IEOMST          10D-  0             ***   
       DIFF_TYPE            IDIFTY         RELAXED     [  0]    ***   
       DIRECT               IDIRCT         OFF         [  0]    ***   
       DROPMO               IDRPMO      NONE         
       ECP                  IECP           OFF         [  0]    ***   
       EIGENVECTOR          IVEC                1               ***   
       EL_ANHARM            IELANH         OFF         [  0]    ***   
       EOMFOLLOW            IEOMSR         ENERGY      [  0]    ***   
       EOMIP                IEOMIP         OFF         [  0]    ***   
       EOMLEVEL             HBARFM         SAME        [  0]    ***   
       EOM_MRCC             IMRCCE         NEW         [  1]    ***   
       EOM_NONIT            EOMNON         OFF         [  0]    ***   
       EOM_NSING            IEOMSI          10D-  0             ***   
       EOM_NSTATES          IMRCCD         DAVIDSON    [  0]    ***   
       EOM_NTRIP            IEOMTR          10D-  0             ***   
       EOM_ORDER            IEXORD         ENERGY      [  0]    ***   
       EOM_PROPSTA          IEOMST              0               ***   
       ESTATE_CONV          IEXTOL          10D-  5             ***   
       ESTATE_DIAG          IEXDIG         ITERATIVE   [  0]    ***   
       ESTATE_LOCK          IESLOC         ON          [  1]    ***   
       ESTATE_MAXC          IEXMXC            120               ***   
       ESTATE_PROP          IEXPRP         OFF         [  0]    ***   
       ESTATE_SYM           IEXSYM   0,  1,  0,  0,
       EVAL_HESS            IRECAL              0            # of cyc.
       EXCITATION           IEXCIT              0               ***   
       EXCITE               IEXCIT         EOMEE       [  3]    ***   
       EXTERN_POT           IEXPOT         OFF         [  0]    ***   
       FCGRADNEW            IFCGNW         OFF         [  0]    ***   
       FC_FIELD             IFINFC              0             x 10-6  
       FD_CALTYPE           IFDCAL         GRADONLY    [  0]    ***   
       FD_PROJECT           IFDPRJ         OFF         [  1]    ***   
       FD_STEPSIZE          IDISFD              0            10-4 bohr
       FD_USEGROUP          IFDGRP         FULL        [  0]    ***   
       FILE_RECSIZ          IFLREC              4096           words  
       FINITE_PERT          IFIPER              0             x 10-6  
       FIXGEOM              IFIXGM         OFF         [  0]    ***   
       FOCK                 IFOCK          AO          [  1]    ***   
       FREQ_ALGORI          IVIALG         STANDARD    [  0]    ***   
       FROZEN_CORE          IFROCO         ON          [  1]    ***   
       GAMMA_ABCD           IGABCD         STORE       [  0]    ***   
       GAMMA_ABCI           IGABCI         STORE       [  0]    ***   
       GENBAS_1             IGNBS1              0               ***   
       GENBAS_2             IGNBS2              0               ***   
       GENBAS_3             IGNBS3              0               ***   
       GENBAS_4             IGNBS4              0               ***   
       GEO_CONV             ICONTL              5              H/bohr 
       GEO_MAXCYC           IOPTCY             50               ***   
       GEO_MAXSTEP          IMXSTP            300            millibohr
       GEO_METHOD           INR            SINGLE_POINT[  5]    ***   
       GIAO                 IGIAO          OFF         [  1]    ***   
       GIMIC                IGIMIC         OFF         [  0]    ***   
       GRID                 IGRID          OFF         [  0]    ***   
       GRID_ALGO            IGALGO         SERIAL      [  0]    ***   
       GUESS                IGUESS         MOREAD      [  0]    ***   
       HBAR                 IHBAR          ON          [  1]    ***   
       HESS_TYPE            IHESTP         SCF         [  0]    ***   
       HF2_FILE             IHF2Fl         USE         [  1]    ***   
       HFSTABILITY          ISTABL         OFF         [  0]    ***   
       INCORE               INCORE         OFF         [  0]    ***   
       INPUT_MRCC           IMRCC          ON          [  1]    ***   
       INTEGRALS            INTTYP         VMOL        [  1]    ***   
       JODA_PRINT           IJPRNT              0               ***   
       KEYWORD_OUT          IDMPKW         NO          [  0]    ***   
       LINDEP_TOL           ILINDP              8               ***   
       LINEQ_CONV           IZTACN          10D-  7           cycles  
       LINEQ_EXPOR          ILMAXD              5               ***   
       LINEQ_MAXCY          ILMAXC            100               ***   
       LINEQ_TYPE           ILTYPE         DIIS        [  1]    ***   
       LOCK_ORBOCC          ILOCOC         OFF         [  0]    ***   
       MEMORY_SIZE          IMEMSZ         *********           words  
       MEM_UNIT             IMEMU          GB          [  3]    ***   
       MRCC                 IMRCCC         OFF         [  0]    ***   
       MULTIPLICTY          IMULTP              1               ***   
       NACOUPLING           IVCOUP         OFF         [  0]    ***   
       NEGEVAL              IDIE           ABORT       [  0]    ***   
       NEWNORM              INEWNO         OFF         [  0]    ***   
       NON-HF               INONHF         OFF         [  0]    ***   
       NTOP_TAMP            ITOPT2             15               ***   
       NUC_MODEL            INUCMO         POINT       [  0]    ***   
       OCCUPATION           IOCCU   ESTIMATED BY SCF 
       OPEN-SHELL           IOPEN          SPIN-ORBITAL[  0]    ***   
       OPTVIB               IOPTVB         OFF         [  0]    ***   
       ORBITALS             IORBTP         STANDARD    [  0]    ***   
       PARALLEL             IPARAL         ON          [  1]    ***   
       PARA_INT             IPINTS         ON          [  1]    ***   
       PARA_PRINT           IPPRIN              0               ***   
       PERT_ORB             IPTORB         STANDARD    [  0]    ***   
       POINTS               IGRDFD              0               ***   
       PRINT                IPRNT               0               ***   
       PROPS                IPROPS         OFF         [  0]    ***   
       PROP_INTEGR          IINTYP         INTERNAL    [  0]    ***   
       PSI                  IPSI           OFF         [  0]    ***   
       QC_ALG               IQCALG         FLM         [  0]    ***   
       QC_LINALG            IQCLIN         TRIDIAG     [  2]    ***   
       QC_MAXCYC            IQCMAX          10D-100           cycles  
       QC_MAXSCFCY          IQCMSC          10D- 15           cycles  
       QC_RTRUST            IQCRTR          10D-  0           x 10-3  
       QC_SKIPSCF           IQCSKI         OFF         [  0]    ***   
       QC_START             IQCSTA          10D-  1             ***   
       QRHFGUESS            IQGUES         OFF         [  0]    ***   
       QUARTIC              IQUART         OFF         [  0]    ***   
       RAMAN_INT            IRAMIN         OFF         [  0]    ***   
       RAMAN_ORB            IRAMRE         UNRELAXED   [  0]    ***   
       RDO                  IRDOFM         OFF         [  0]    ***   
       REDUCE_REPR          REDREP         Ir          [  0]    ***   
       REFERENCE            IREFNC         RHF         [  0]    ***   
       RELATIVIST           IRELAT         OFF         [  0]    ***   
       RELAX_DENS           IRDENS         OFF         [  0]    ***   
       RESET_FLAGS          IRESET         OFF         [  0]    ***   
       RESTART_CC           ICCRES         OFF         [  0]    ***   
       ROT_EVEC             ROTVEC              0               ***   
       SAVE_INTS            ISVINT         OFF         [  0]    ***   
       SCALE_ON             ISTCRT              0               ***   
       SCF_CONV             ISCFCV          10D-  8             ***   
       SCF_DAMPING          IDAMP               0             x 10-3  
       SCF_EXPORDE          IRPPOR              6               ***   
       SCF_EXPSTAR          IRPPLS              8               ***   
       SCF_EXTRAPO          IRPP           ON          [  1]    ***   
       SCF_MAXCYC           ISCFCY            150              cycles 
       SCF_NOSTOP           ISCFST         OFF         [  0]    ***   
       SCF_PRINT            ISCFPR              0               ***   
       SCF_PROG             ISCFPR         SCF         [  0]    ***   
       SD_FIELD             IFINSD              0             x 10-6  
       SOPERT               IPERSO         OFF         [  0]    ***   
       SPHERICAL            IDFGHI         ON          [  1]    ***   
       SPINORBIT            ISOCAL         OFF         [  0]    ***   
       SPINROTATIO          ISRCON         OFF         [  0]    ***   
       SPIN_FLIP            ISPFLP         OFF         [  0]    ***   
       SPIN_ORBIT           ISPORB         OFF         [  0]    ***   
       SPIN_SCAL            ISCSMP         OFF         [  0]    ***   
       STEEPSCALE           ISTPSC              1000          x 10-3  
       SUBGROUP             ISUBGP         DEFAULT     [  0]    ***   
       SUBGRPAXIS           ISBXYZ         X           [  0]    ***   
       SYMMETRY             ISYM           ON          [  0]    ***   
       SYM_CHECK            ISYMCK         OVERRIDE    [  1]    ***   
       T3_EXTRAPOL          IT3EXT         OFF         [  0]    ***   
       T4_EXTRAPOL          IT4EXP         OFF         [  0]    ***   
       TAMP_SUM             IEVERY              5               ***   
       TESTSUITE            ITESTS         OFF         [  0]    ***   
       THERMOCH             ITHERM         OFF         [  0]    ***   
       TOL_CHOLESK          ITOLCH          10D-  4             ***   
       TRANGRAD             IRESRM         OFF         [  0]    ***   
       TRANS_INV            ITRAIN         USE         [  0]    ***   
       TREAT_PERT           ITREAT         SIMULTANEOUS[  0]    ***   
       TRIP_ALGORI          ITRALG         NORMAL      [  0]    ***   
       UIJ_THRESHO          IUIJTH              1               ***   
       UNITS                IUNITS         BOHR        [  1]    ***   
       UNOS                 IUNOS          OFF         [  0]    ***   
       UPDATE_HESS          IHUPDT         ON          [  1]    ***   
       VIBPHASE             ISETPH         STANDARD    [  0]    ***   
       VIBRATION            IVIB           NO          [  0]    ***   
       VIB_ALGORIT          IGEALG         STANDARD    [  0]    ***   
       VNATORB              IVNORB         OFF         [  0]    ***   
       VTRAN                IVTRAN         FULL/PARTIAL[  0]    ***   
       XFIELD               IXEFLD              0             x 10-6  
       XFORM_TOL            IXFTOL          10D- 11             ***   
       YFIELD               IYEFLD              0             x 10-6  
       ZFIELD               IZEFLD              0             x 10-6  
       ZSCALE_EXP           IZEXPS         OFF         [  0]    ***   
    -------------------------------------------------------------------
  @GETXYZ-I,     2 atoms read from ZMAT.
   Rotational constants (in cm-1): 
         10.5830905500            10.5830905500
   Rotational constants (in MHz): 
     317273.1173699838        317273.1173699838
********************************************************************************
   The full molecular point group is CXv .
   The largest Abelian subgroup of the full molecular point group is C2v .
   The computational point group is C2v .
********************************************************************************


 ----------------------------------------------------------------
         Coordinates used in calculation (QCOMP) 
 ----------------------------------------------------------------
 Z-matrix   Atomic            Coordinates (in bohr)
  Symbol    Number           X              Y              Z
 ----------------------------------------------------------------
     CL       17        -0.00000000     0.00000000     0.06750444
     H         1         0.00000000     0.00000000    -2.34222479
 ----------------------------------------------------------------
 
   Interatomic distance matrix (Angstroms) 
 
                 CL            H    
                [ 1]        [ 2]
  CL   [ 1]     0.00000
  H    [ 2]     1.27517     0.00000
 rotcon2
   Rotational constants (in cm-1): 
         10.5830905500             0.0000000000
   Rotational constants (in MHz): 
     317273.1173699838             0.0000000000
  There are   5 frozen-core orbitals.
  There are   36 basis functions.
 @GEOPT-W, Archive file not created for single-point calculation.
 @CHECKOUT-I, Total execution time (CPU/WALL):        0.18/      10.20 seconds.
--executable xjoda finished with status     0 in       10.78 seconds (walltime).
 --invoking executable--
/home/CEISAM/blondel-a/soft/cfour2.1/cfour2.1-serial-mkl/bin/xvmol
 SERIAL VERSION OF MOLECULE STARTED
********************************************************************************
                    INPUT FROM MOL FILE
********************************************************************************
INTGRL        1    0    1    0    0    0    0    0    0                         
         *** CFOUR Program System (Release V0.1) ***                            
Ketene -GS                                                                      
    2    2 X  Y       0.10E-08              0    0                              
   9999.00      3.00                                                            
         17.00000000    1    3    1    1    1                                   
CL#1  -0.000000000000000   0.000000000000000   0.067504438739180                
   13    5                                                                      
   127900.000000000       2.411500000000000E-004 -6.789000000000000E-005        
  2.050000000000000E-005  0.000000000000000E+000  0.000000000000000E+000        
   19170.0000000000       1.870950000000000E-003 -5.218400000000000E-004        
  1.583000000000000E-004  0.000000000000000E+000  0.000000000000000E+000        
   4363.00000000000       9.708270000000000E-003 -2.765130000000000E-003        
  8.336400000000000E-004  0.000000000000000E+000  0.000000000000000E+000        
   1236.00000000000       3.931530000000000E-002 -1.115370000000000E-002        
  3.398800000000000E-003  0.000000000000000E+000  0.000000000000000E+000        
   403.600000000000       0.125932000000000      -3.859190000000000E-002        
  1.167380000000000E-002  0.000000000000000E+000  0.000000000000000E+000        
   145.700000000000       0.299341000000000      -9.948480000000000E-002        
  3.096220000000000E-002  0.000000000000000E+000  0.000000000000000E+000        
   56.8100000000000       0.421886000000000      -0.201392000000000             
  6.295330000000000E-002  0.000000000000000E+000  0.000000000000000E+000        
   23.2300000000000       0.237201000000000      -0.130313000000000             
  4.602570000000000E-002  0.000000000000000E+000  0.000000000000000E+000        
   6.64400000000000       1.915310000000000E-002  0.509443000000000             
 -0.219312000000000       0.000000000000000E+000  0.000000000000000E+000        
   2.57500000000000      -3.347920000000000E-003  0.610725000000000             
 -0.408773000000000       0.000000000000000E+000  0.000000000000000E+000        
  0.537100000000000       9.298800000000000E-004  4.215490000000000E-002        
  0.638465000000000       0.000000000000000E+000  0.000000000000000E+000        
  0.193800000000000      -3.963800000000000E-004 -9.234269999999999E-003        
  0.562362000000000        1.00000000000000       0.000000000000000E+000        
  6.080000000000000E-002  0.000000000000000E+000  0.000000000000000E+000        
  0.000000000000000E+000  0.000000000000000E+000   1.00000000000000             
    9    4                                                                      
   417.600000000000       5.259820000000000E-003 -1.435700000000000E-003        
  0.000000000000000E+000  0.000000000000000E+000                                
   98.3300000000000       3.983320000000000E-002 -1.077960000000000E-002        
  0.000000000000000E+000  0.000000000000000E+000                                
   31.0400000000000       0.164655000000000      -4.700750000000000E-002        
  0.000000000000000E+000  0.000000000000000E+000                                
   11.1900000000000       0.387322000000000      -0.111030000000000             
  0.000000000000000E+000  0.000000000000000E+000                                
   4.24900000000000       0.457072000000000      -0.153275000000000             
  0.000000000000000E+000  0.000000000000000E+000                                
   1.62400000000000       0.151636000000000       8.946090000000000E-002        
  0.000000000000000E+000  0.000000000000000E+000                                
  0.532200000000000       1.816150000000000E-003  0.579444000000000             
  0.000000000000000E+000  0.000000000000000E+000                                
  0.162000000000000       1.882960000000000E-003  0.483272000000000             
   1.00000000000000       0.000000000000000E+000                                
  4.660000000000000E-002  0.000000000000000E+000  0.000000000000000E+000        
  0.000000000000000E+000   1.00000000000000                                     
    2    2                                                                      
  0.600000000000000        1.00000000000000       0.000000000000000E+000        
  0.196000000000000       0.000000000000000E+000   1.00000000000000             
          1.00000000    1    2    1    1                                        
H #2   0.000000000000000   0.000000000000000  -2.342224785360820                
    5    3                                                                      
   13.0100000000000       1.968500000000000E-002  0.000000000000000E+000        
  0.000000000000000E+000                                                        
   1.96200000000000       0.137977000000000       0.000000000000000E+000        
  0.000000000000000E+000                                                        
  0.444600000000000       0.478148000000000       0.000000000000000E+000        
  0.000000000000000E+000                                                        
  0.122000000000000       0.501240000000000        1.00000000000000             
  0.000000000000000E+000                                                        
  2.974000000000000E-002  0.000000000000000E+000  0.000000000000000E+000        
   1.00000000000000                                                             
    2    2                                                                      
  0.727000000000000        1.00000000000000       0.000000000000000E+000        
  0.141000000000000       0.000000000000000E+000   1.00000000000000             
FINISH                                                                          
 
********************************************************************************
 ONE- AND TWO-ELECTRON INTEGRALS OVER SYMMETRY-ADAPTED AOS ARE CALCULATED.

  SPHERICAL HARMONICS ARE USED.
  
  INTEGRALS LESS THAN  0.10E-13 ARE NEGLECTED.

  NUCLEAR REPULSION ENERGY :    7.0547345444 A.U.
  @MOLECU-I, ONE ELECTRON INTEGRALS (CPU/WALL):        0.02/       0.04 SECONDS.
  @TWOEL-I,       9924 INTEGRALS OF SYMMETRY TYPE  I I I I
  @TWOEL-I,      20234 INTEGRALS OF SYMMETRY TYPE  I J I J
  @TWOEL-I,      12049 INTEGRALS OF SYMMETRY TYPE  I I J J
  @TWOEL-I,       5376 INTEGRALS OF SYMMETRY TYPE  I J K L
  @TWOEL-I, TOTAL NUMBER OF 2-E INTEGRALS      47583.
  @MOLECU-I, TWO ELECTRON INTEGRALS (CPU/WALL):        1.57/       0.09 SECONDS.
 @CHECKOUT-I, Total execution time (CPU/WALL):        1.62/       0.14 seconds.

Running with 20 threads/proc

--executable xvmol finished with status     0 in        0.72 seconds (walltime).
 --invoking executable--
/home/CEISAM/blondel-a/soft/cfour2.1/cfour2.1-serial-mkl/bin/xvmol2ja
 @GETMEM-I,  Allocated  238418 MB of main memory.
 @CHECKOUT-I, Total execution time (CPU/WALL):        0.03/       0.42 seconds.
--executable xvmol2ja finished with status     0 in        1.14 seconds (walltime).
 --invoking executable--
/home/CEISAM/blondel-a/soft/cfour2.1/cfour2.1-serial-mkl/bin/xvscf
  There are   36 functions in the AO basis.

  There are 4 irreducible representations.

       Irrep        # of functions
         1                 18
         2                  8
         3                  8
         4                  2


  Parameters for SCF calculation: 
        SCF reference function:  RHF  
  Maximum number of iterations:  150
     Full symmetry point group: CXv 
     Computational point group: C2v 
        Initial density matrix: MOREAD                 
     SCF convergence tolerance: 10**(- 8)
  DIIS convergence acceleration:  ON
          Latest start for DIIS:   8
                     DIIS order:   6

  Memory information:      90074 words required.
  Fock matrices are constructed from AO integral file.
 @GETMEM-I,  Allocated       0 MB of main memory.
  Initialization and symmetry analysis required      0.003 seconds.

  @INITGES-I, Occupancies from core Hamiltonian:

          Alpha population by irrep:   5    2    2    0
           Beta population by irrep:   5    2    2    0


 total no. of electrons in initial guess :  0.000000000000000E+000
  --------------------------------------------------------------------
  Iteration         Total Energy            Largest Density Difference
  --------------------------------------------------------------------
       0             7.054734544437980              0.0000000000D+00
   current occupation vector 
     5  2  2  0
     5  2  2  0
       1          -455.094583428475232              0.2322543438D+02
   current occupation vector 
     5  2  2  0
     5  2  2  0
       2          -456.230844290125390              0.2312674324D+02
   current occupation vector 
     6  2  1  0
     6  2  1  0
       3          -459.219739841885826              0.8485435853D+01
   current occupation vector 
     5  2  2  0
     5  2  2  0
       4          -459.960446886315196              0.3346973667D+01
   current occupation vector 
     5  2  2  0
     5  2  2  0
       5          -460.075998175309508              0.8582168946D+00
   current occupation vector 
     5  2  2  0
     5  2  2  0
       6          -460.092461592453219              0.3042431922D+00
   current occupation vector 
     5  2  2  0
     5  2  2  0
       7          -460.092606274080651              0.1962142432D-01
   current occupation vector 
     5  2  2  0
     5  2  2  0
       8          -460.092616615238398              0.6572071144D-02
   current occupation vector 
     5  2  2  0
     5  2  2  0
       9          -460.092617195546154              0.1731914498D-02
   current occupation vector 
     5  2  2  0
     5  2  2  0
      10          -460.092617204012811              0.1383253006D-03
   current occupation vector 
     5  2  2  0
     5  2  2  0
      11          -460.092617204095632              0.1489374329D-04
   current occupation vector 
     5  2  2  0
     5  2  2  0
      12          -460.092617204098985              0.1653542293D-05
   current occupation vector 
     5  2  2  0
     5  2  2  0
      13          -460.092617204100577              0.8070480251D-06
   current occupation vector 
     5  2  2  0
     5  2  2  0
      14          -460.092617204099838              0.1043821376D-06
   current occupation vector 
     5  2  2  0
     5  2  2  0
      15          -460.092617204099895              0.1866597343D-07
   current occupation vector 
     5  2  2  0
     5  2  2  0

  SCF has converged.

 Density matrix saved to file den.dat
 total electron number:   18.0000000000000     
     E(SCF)=      -460.092617204100520              0.4988718771D-08

  Eigenvector printing suppressed.

 @PUTMOS-I, Writing converged MOs to NEWMOS. 
 @PUTMOS-I, Symmetry   1 Full Blocks  4 Partial Blocksize   2
 @PUTMOS-I, Symmetry   2 Full Blocks  2 Partial Blocksize   0
 @PUTMOS-I, Symmetry   3 Full Blocks  2 Partial Blocksize   0
 @PUTMOS-I, Symmetry   4 Full Blocks  0 Partial Blocksize   2
 @PUTFOCK-I, Writing converged Fock matrix to NEWFOCK. 
 @PUTFOCK-I, Symmetry   1 Full Blocks  4 Partial Blocksize   2
 @PUTFOCK-I, Symmetry   2 Full Blocks  2 Partial Blocksize   0
 @PUTFOCK-I, Symmetry   3 Full Blocks  2 Partial Blocksize   0
 @PUTFOCK-I, Symmetry   4 Full Blocks  0 Partial Blocksize   2


 
  ORBITAL EIGENVALUES (ALPHA)  (1H = 27.2113834 eV)

       MO #        E(hartree)               E(eV)           FULLSYM    COMPSYM
       ----   --------------------   --------------------   -------   ---------
    1     1        -104.8508632321       -2853.1370392294     SG+        A1 (1)
    2     2         -10.5767592881        -287.8082521168     SG+        A1 (1)
    3     3          -8.0447038373        -218.9075204569     SG+        A1 (1)
    4    27          -8.0411470652        -218.8107357672      PI        B2 (3)
    5    19          -8.0411470652        -218.8107357670      PI        B1 (2)
    6     4          -1.1197286007         -30.4693642581     SG+        A1 (1)
    7     5          -0.6265440464         -17.0491302637     SG+        A1 (1)
    8    20          -0.4774522292         -12.9921356650      PI        B1 (2)
    9    28          -0.4774522291         -12.9921356607      PI        B2 (3)
  +++++++++++++++++++++++++++++++++++++++++++++++++++++++++++++++++++++++++++++
   10     6           0.0352680432           0.9596922466     SG+        A1 (1)
   11     7           0.1258357349           3.4241644265     SG+        A1 (1)
   12    21           0.1381264078           3.7586106393      PI        B1 (2)
   13    29           0.1381264078           3.7586106403      PI        B2 (3)
   14     8           0.1822136138           4.9582845048     SG+        A1 (1)
   15     9           0.2148393823           5.8460768014     SG+        A1 (1)
   16    30           0.3196337879           8.6976775502      PI        B2 (3)
   17    22           0.3196337879           8.6976775506      PI        B1 (2)
   18    35           0.4712606027          12.8236529416      DE        A2 (4)
   19    10           0.4712606027          12.8236529416      DE        A1 (1)
   20    11           0.4924099711          13.3991565134     SG+        A1 (1)
   21    12           0.5746459690          15.6369117808     SG+        A1 (1)
   22    23           0.6085085567          16.5583596394      PI        B1 (2)
   23    31           0.6085085567          16.5583596395      PI        B2 (3)
   24    13           0.8963347652          24.3905089510     SG+        A1 (1)
   25    24           0.9238466152          25.1391444493      PI        B1 (2)
   26    32           0.9238466153          25.1391444517      PI        B2 (3)
   27    14           1.0330993673          28.1120629746     SG+        A1 (1)
   28    25           1.3852674334          37.6950432424      PI        B1 (2)
   29    33           1.3852674334          37.6950432426      PI        B2 (3)
   30    36           1.3857758071          37.7088767948      DE        A2 (4)
   31    15           1.3857758071          37.7088767948      DE        A1 (1)
   32    16           1.4517410475          39.5038822411     SG+        A1 (1)
   33    17           1.7914471224          48.7477544876     SG+        A1 (1)
   34    26           1.8602559159          50.6201369491      PI        B1 (2)
   35    34           1.8602559159          50.6201369492      PI        B2 (3)
   36    18           2.4368674137          66.3105334884     SG+        A1 (1)


  VSCF finished.

 @CHECKOUT-I, Total execution time (CPU/WALL):        0.07/       0.35 seconds.
--executable xvscf finished with status     0 in        0.90 seconds (walltime).
 --invoking executable--
/home/CEISAM/blondel-a/soft/cfour2.1/cfour2.1-serial-mkl/bin/xvtran
 @GETMEM-I,  Allocated  238418 MB of main memory.
  Full RHF integral transformation
  The following   5 MOs will be dropped:
    1  2  3  6  8
  There are  31 active molecular orbitals.
  Transformation of IIII integrals :
  1 pass through the AO integral file was required.
        9924 AO integrals were read.
        8078 MO integrals were written to HF2.
  Transformation of IIJJ integrals :
  1 pass through the AO integral file was required.
       12049 AO integrals were read.
        8032 MO integrals were written to HF2.
  Transformation of IJIJ integrals :
  1 pass through the AO integral file was required.
       20234 AO integrals were read.
       13030 MO integrals were written to HF2.
  Transformation of IJKL integrals :
  1 pass through the AO integral file was required.
        5376 AO integrals were read.
        4410 MO integrals were written to HF2.
  Summary of active molecular orbitals: 
------------------------------------------------------------------------
 
  Index      Eigenvalue    Symmetry    Index      Eigenvalue    Symmetry
------------------------------------------------------------------------
     1        -1.1197286        1        17         2.4368674        1
     2        -0.6265440        1        18         0.1381264        2
     3        -0.4774522        2        19         0.3196338        2
     4        -0.4774522        3        20         0.6085086        2
     5         0.0352680        1        21         0.9238466        2
     6         0.1258357        1        22         1.3852674        2
     7         0.1822136        1        23         1.8602559        2
     8         0.2148394        1        24         0.1381264        3
     9         0.4712606        1        25         0.3196338        3
    10         0.4924100        1        26         0.6085086        3
    11         0.5746460        1        27         0.9238466        3
    12         0.8963348        1        28         1.3852674        3
    13         1.0330994        1        29         1.8602559        3
    14         1.3857758        1        30         0.4712606        4
    15         1.4517410        1        31         1.3857758        4
    16         1.7914471        1
------------------------------------------------------------------------
  -1.11972860071731      -0.626544046405475      -0.477452229238627     
 -0.477452229081073       3.526804324712400E-002  0.125835734853982     
  0.182213613761346       0.214839382308828       0.471260602708830     
  0.492409971091460       0.574645968967092       0.896334765214602     
   1.03309936732629        1.38577580714932        1.45174104750178     
   1.79144712236841        2.43686741367224       0.138126407762113     
  0.319633787915652       0.608508556732263       0.923846615210832     
   1.38526743342215        1.86025591587929       0.138126407800384     
  0.319633787903725       0.608508556735502       0.923846615298814     
   1.38526743342999        1.86025591588375       0.471260602708822     
   1.38577580714930     
 @CHECKOUT-I, Total execution time (CPU/WALL):        0.05/       0.11 seconds.
--executable xvtran finished with status     0 in        0.66 seconds (walltime).
 --invoking executable--
/home/CEISAM/blondel-a/soft/cfour2.1/cfour2.1-serial-mkl/bin/xintprc
 @GETMEM-I,  Allocated  238418 MB of main memory.
  @GMOIAA-I, Processing MO integrals for spin case AA.
  @GMOIAA-I, Generation of integral list completed.
                      TYPE                NUMBER
                      ----               --------
                      PPPP                 19459
                      PPPH                 11020
                      PPHH                  1633
                      PHPH                  1102
                      PHHH                   314
                      HHHH                    22

                     TOTAL                 33550

  @FORMT2-I, Second-order MP correlation energies:
            ------------------------------------------------
            E(SCF)                  =   -460.092617204101 a.u.
            E2(AA)                  =     -0.019966852294 a.u.
            E2(AB)                  =     -0.119171106135 a.u.
            E2(TOT)                 =     -0.159104810724 a.u.
            Total MP2 energy        =   -460.251722014825 a.u.
            ------------------------------------------------
   Largest T2 amplitudes for spin case AB:
       _       _                 _       _                 _       _
   i   j   a   b             i   j   a   b             i   j   a   b
-----------------------------------------------------------------------------
[  2   2   7   7]-0.03313 [  4   4   9   9]-0.02619 [  4   4  30  30]-0.02619
[  3   3  30  30]-0.02619 [  3   3   9   9]-0.02619 [  4   4  27  27]-0.02496
[  3   3  21  21]-0.02496 [  2   2  12  12]-0.02114 [  2   2  10  10]-0.02016
[  3   4  21  27]-0.01821 [  4   3  27  21]-0.01821 [  4   4  26  26]-0.01797
[  3   3  20  20]-0.01797 [  2   2   8   7] 0.01724 [  2   2   7   8] 0.01724
-----------------------------------------------------------------------------
   Norm of T2AB vector (     3158 symmetry allowed elements):  0.2144829556.
-----------------------------------------------------------------------------
 @CHECKOUT-I, Total execution time (CPU/WALL):        0.04/       0.10 seconds.
--executable xintprc finished with status     0 in        0.64 seconds (walltime).
  calling xvcc 
 --invoking executable--
/home/CEISAM/blondel-a/soft/cfour2.1/cfour2.1-serial-mkl/bin/xvcc
 @GETMEM-I,  Allocated  238418 MB of main memory.
   CC2 energy will be calculated.
   The total correlation energy is -0.159104810724 a.u.
   The total correlation energy is -0.159102435229 a.u.
  Convergence information after     1 iterations: 
  Largest element of residual vector :  0.51063027E-02.
  Largest element of DIIS residual   :  0.51063027E-02.
   The total correlation energy is -0.159528617274 a.u.
  Convergence information after     2 iterations: 
  Largest element of residual vector : -0.13732549E-02.
  Largest element of DIIS residual   : -0.72847998E-03.
   The total correlation energy is -0.159636959139 a.u.
  Convergence information after     3 iterations: 
  Largest element of residual vector :  0.67676239E-03.
  Largest element of DIIS residual   :  0.28744975E-03.
   The total correlation energy is -0.159688599597 a.u.
  Convergence information after     4 iterations: 
  Largest element of residual vector :  0.81672204E-04.
  Largest element of DIIS residual   :  0.80237881E-04.
   The total correlation energy is -0.159689074742 a.u.
  Convergence information after     5 iterations: 
  Largest element of residual vector :  0.16262122E-04.
  Largest element of DIIS residual   :  0.11435462E-04.
   The total correlation energy is -0.159688882797 a.u.
  Convergence information after     6 iterations: 
  Largest element of residual vector :  0.62213985E-05.
  Largest element of DIIS residual   :  0.45406780E-05.
   The total correlation energy is -0.159688904018 a.u.
  Convergence information after     7 iterations: 
  Largest element of residual vector :  0.18033534E-05.
  Largest element of DIIS residual   :  0.62474123E-06.
   The total correlation energy is -0.159688898822 a.u.
  Convergence information after     8 iterations: 
  Largest element of residual vector :  0.37624473E-06.
  Largest element of DIIS residual   :  0.24474674E-06.
   The total correlation energy is -0.159688904529 a.u.
  Convergence information after     9 iterations: 
  Largest element of residual vector :  0.84267638E-07.
  Largest element of DIIS residual   : -0.54416577E-07.
  Amplitude equations converged in     9iterations.
   The total correlation energy is -0.159688905431 a.u.
   The CC iterations have converged.

   Largest T1 amplitudes for spin case AA:
   i       a                 i       a                 i       a    
-----------------------------------------------------------------------------
[  3      19    ] 0.00770 [  4      25    ] 0.00770 [  2      10    ]-0.00715
[  3      18    ] 0.00639 [  4      24    ] 0.00639 [  2      15    ]-0.00584
[  2      13    ]-0.00391 [  2       6    ]-0.00336 [  2       8    ]-0.00310
[  1      11    ]-0.00247 [  1       7    ] 0.00242 [  1      16    ] 0.00236
[  2      16    ] 0.00223 [  1      13    ] 0.00179 [  2      11    ] 0.00171
-----------------------------------------------------------------------------
   Norm of T1AA vector (       38 symmetry allowed elements):  0.0193049776.
-----------------------------------------------------------------------------
   Largest T2 amplitudes for spin case AB:
       _       _                 _       _                 _       _
   i   j   a   b             i   j   a   b             i   j   a   b
-----------------------------------------------------------------------------
[  2   2   7   7]-0.03392 [  4   4   9   9]-0.02620 [  4   4  30  30]-0.02620
[  3   3  30  30]-0.02620 [  3   3   9   9]-0.02620 [  4   4  27  27]-0.02486
[  3   3  21  21]-0.02486 [  2   2  12  12]-0.02139 [  2   2  10  10]-0.02038
[  4   3  27  21]-0.01812 [  3   4  21  27]-0.01812 [  4   4  26  26]-0.01789
[  3   3  20  20]-0.01789 [  2   2   8   7] 0.01762 [  2   2   7   8] 0.01762
-----------------------------------------------------------------------------
   Norm of T2AB vector (     3158 symmetry allowed elements):  0.2156423887.
-----------------------------------------------------------------------------
       Summary of iterative solution of CC equations 
      -----------------------------------------------------------
                       Correlation           Total
       Iteration         Energy              Energy
      -----------------------------------------------------------
            0        -0.159104810724    -460.251722014825  DIIS 
            1        -0.159102435229    -460.251719639329  DIIS 
            2        -0.159528617274    -460.252145821374  DIIS 
            3        -0.159636959139    -460.252254163240  DIIS 
            4        -0.159688599597    -460.252305803698  DIIS 
            5        -0.159689074742    -460.252306278842  DIIS 
            6        -0.159688882797    -460.252306086898  DIIS 
            7        -0.159688904018    -460.252306108118  DIIS 
            8        -0.159688898822    -460.252306102923  DIIS 
            9        -0.159688905431    -460.252306109531  DIIS 
      -----------------------------------------------------------
      A miracle has come to pass. The CC iterations have converged.
      The reference energy is      -460.09261720410052 a.u.
      The correlation energy is      -0.15968890543078 a.u.
      The total energy is          -460.25230610953128 a.u.
 @CHECKOUT-I, Total execution time (CPU/WALL):        2.70/       0.20 seconds.
--executable xvcc finished with status     0 in        0.74 seconds (walltime).
 --invoking executable--
/home/CEISAM/blondel-a/soft/cfour2.1/cfour2.1-serial-mkl/bin/xlambda
 @GETMEM-I,  Allocated  238418 MB of main memory.
 Hbar is calculated for a CC2 wave function.
 Calculation of Hbar completed.
 @CHECKOUT-I, Total execution time (CPU/WALL):        0.13/       0.10 seconds.
--executable xlambda finished with status     0 in        0.65 seconds (walltime).
 --invoking executable--
/home/CEISAM/blondel-a/soft/cfour2.1/cfour2.1-serial-mkl/bin/xvee
 @GETMEM-I,  Allocated  238418 MB of main memory.
  cc2 and ccprog  T                     0
  EOMEE-CC2 excitation energies will be evaluated.
  @SETMET-I, VPROP property integrals are used.
  @SETMET-I, A total of   1 target states will be studied.
  Summary of active alpha molecular orbitals:
------------------------------------------------------------------------------
Orbital      Sym   Eigenvalue  <xx>     <yy>     <zz>     <xy>     <xz>     <yz>
        SCF
  #  position
------------------------------------------------------------------------------
   1      6    1      -1.1197   0.000    0.000    0.000    0.000    0.000    0.000
   2      7    1      -0.6265   0.000    0.000    0.000    0.000    0.000    0.000
   3      8    2      -0.4775   0.000    0.000    0.000    0.000    0.000    0.000
   4      9    3      -0.4775   0.000    0.000    0.000    0.000    0.000    0.000
   5     10    1       0.0353   0.000    0.000    0.000    0.000    0.000    0.000
   6     11    1       0.1258   0.000    0.000    0.000    0.000    0.000    0.000
   7     14    1       0.1822   0.000    0.000    0.000    0.000    0.000    0.000
   8     15    1       0.2148   0.000    0.000    0.000    0.000    0.000    0.000
   9     19    1       0.4713   0.000    0.000    0.000    0.000    0.000    0.000
  10     20    1       0.4924   0.000    0.000    0.000    0.000    0.000    0.000
  11     21    1       0.5746   0.000    0.000    0.000    0.000    0.000    0.000
  12     24    1       0.8963   0.000    0.000    0.000    0.000    0.000    0.000
  13     27    1       1.0331   0.000    0.000    0.000    0.000    0.000    0.000
  14     31    1       1.3858   0.000    0.000    0.000    0.000    0.000    0.000
  15     32    1       1.4517   0.000    0.000    0.000    0.000    0.000    0.000
  16     33    1       1.7914   0.000    0.000    0.000    0.000    0.000    0.000
  17     36    1       2.4369   0.000    0.000    0.000    0.000    0.000    0.000
  18     12    2       0.1381   0.000    0.000    0.000    0.000    0.000    0.000
  19     17    2       0.3196   0.000    0.000    0.000    0.000    0.000    0.000
  20     22    2       0.6085   0.000    0.000    0.000    0.000    0.000    0.000
  21     25    2       0.9238   0.000    0.000    0.000    0.000    0.000    0.000
  22     28    2       1.3853   0.000    0.000    0.000    0.000    0.000    0.000
  23     34    2       1.8603   0.000    0.000    0.000    0.000    0.000    0.000
  24     13    3       0.1381   0.000    0.000    0.000    0.000    0.000    0.000
  25     16    3       0.3196   0.000    0.000    0.000    0.000    0.000    0.000
  26     23    3       0.6085   0.000    0.000    0.000    0.000    0.000    0.000
  27     26    3       0.9238   0.000    0.000    0.000    0.000    0.000    0.000
  28     29    3       1.3853   0.000    0.000    0.000    0.000    0.000    0.000
  29     35    3       1.8603   0.000    0.000    0.000    0.000    0.000    0.000
  30     18    4       0.4713   0.000    0.000    0.000    0.000    0.000    0.000
  31     30    4       1.3858   0.000    0.000    0.000    0.000    0.000    0.000
------------------------------------------------------------------------------
  @DRVTDA-I, Roots obtained by Davidson method.
  calling tda davidson                       4                     2
  after tda davidson                      4                     4
                     1                     1
  kroot is                      1
__________________________________________________________________________
    Tamm-Dancoff (CIS) Excitation Energies and Transition Moments

                Excitation         Transition Dipole         Oscillator
 Root  Symmetry  Energy         x           y           z     Strength
__________________________________________________________________________
   1       2    0.30727      0.0000      0.0000      0.0000  .00000000D+00
__________________________________________________________________________
 
__________________________________________________________________________
  TDA excitation ergy:             0.307272491216 a.u.    8.3613 eV
  Total TDA electronic energy:  -459.785344712885 a.u.
 
  Dominant contributions: 
  SCF eigenvalue ordering used in list below. 
--------------------------------------------------------------------------------
    I    j    A    b
--------------------------------------------------------------------------------
    8    0   10    0  -0.7715562881 AA  
    8    0   14    0  -0.6092304328 AA  
    8    0   20    0   0.1013924049 AA  
    8    0   11    0   0.0867381891 AA  
    8    0   15    0   0.0686628068 AA  
    8    0   21    0   0.0632237464 AA  
    8    0   24    0  -0.0545282925 AA  
    9    0   18    0   0.0329059370 AA  
    8    0   19    0   0.0329059370 AA  
    7    0   17    0   0.0200996312 AA  
    7    0   22    0   0.0148163528 AA  
    8    0   33    0  -0.0145691505 AA  
    9    0   30    0   0.0140978903 AA  
    8    0   31    0   0.0140978903 AA  
    7    0   12    0  -0.0111504329 AA  
--------------------------------------------------------------------------------
__________________________________________________________________________
  @DOEOMEE-I, Excitation energies computed by the EOMEE-CC2/CC2-LR method.
  @DOEOMEE-I, right-hand eigenvectors will be computed.
  Beginning symmetry block   2.   1 roots requested.
  @DOEOMEE-I, Matrix dimension for diagonalization:     2943
  Creating initial guess for root
________________________________________________________________________
            Subspace          Eigenvalue           
 Iteration  Dimension   (a.u.)         (eV)       Overlap      Residual
________________________________________________________________________
  @NEWGES-I, Using TDA initial guess.
  1   1  0.3636382855D+00  0.9895100805D+01  0.0000000000D+00  0.2568108871D+00
  2   2  0.2922611614D+00  0.7952830516D+01  0.9718114593D+00  0.1264250051D+00
  3   3  0.2903615641D+00  0.7901139844D+01  0.9976070837D+00  0.1761463430D-01
  4   4  0.2901850107D+00  0.7896335583D+01  0.9998268626D+00  0.1022843855D-01
  5   5  0.2901387566D+00  0.7895076944D+01  0.9999147927D+00  0.2788669078D-02
  L-O-C-K-I-N-G O-N R-O-O-T 
  6   6  0.2901294600D+00  0.7894823973D+01  0.9999882420D+00  0.1596002667D-02
  7   7  0.2901293821D+00  0.7894821853D+01  0.9999976716D+00  0.4905525328D-03
  8   8  0.2901288510D+00  0.7894807401D+01  0.9999998359D+00  0.1651684454D-03
  9   9  0.2901288179D+00  0.7894806499D+01  0.9999999740D+00  0.7513381009D-04
 10  10  0.2901287670D+00  0.7894805114D+01  0.9999999948D+00  0.2467147560D-04
 11  11  0.2901287470D+00  0.7894804570D+01  0.9999999991D+00  0.1290746236D-04
 12  12  0.2901287513D+00  0.7894804687D+01  0.9999999998D+00  0.3227504636D-05
  Converged eigenvalue:   0.290128751311750       a.u.
   Total EOMEE-CC2 electronic energy     -459.962177358219549 a.u.
  Converged eigenvector 
  SCF eigenvalue ordering used in list below. 
--------------------------------------------------------------------------------
    I    j    A    b
--------------------------------------------------------------------------------
    8    0   10    0  -0.5669040734 AA  
    8    0   14    0  -0.3869469483 AA  
    8    0   21    0   0.0422552376 AA  
    8    0   20    0   0.0412858266 AA  
    8    8   12   10   0.0376568827 ABAB
    8    8   10   12   0.0376568827 ABAB
    8    0   11    0   0.0368327061 AA  
    8    7   10   14  -0.0320476148 ABAB
    7    8   14   10  -0.0320476148 ABAB
    8    0   24    0  -0.0319096184 AA  
    9    8   13   10   0.0295817090 ABAB
    8    9   10   13   0.0295817090 ABAB
    8    8   25   10  -0.0272331942 ABAB
    8    8   10   25  -0.0272331942 ABAB
    8    7   14   14  -0.0268012305 ABAB
--------------------------------------------------------------------------------
  Converged eigenvector, normalized to one 
  SCF eigenvalue ordering used in list below. 
--------------------------------------------------------------------------------
    I    j    A    b
--------------------------------------------------------------------------------
    8    0   10    0  -0.5669040734 AA  
    8    0   14    0  -0.3869469483 AA  
    8    0   21    0   0.0422552376 AA  
    8    0   20    0   0.0412858266 AA  
    8    8   12   10   0.0376568827 ABAB
    8    8   10   12   0.0376568827 ABAB
    8    0   11    0   0.0368327061 AA  
    8    7   10   14  -0.0320476148 ABAB
    7    8   14   10  -0.0320476148 ABAB
    8    0   24    0  -0.0319096184 AA  
    9    8   13   10   0.0295817090 ABAB
    8    9   10   13   0.0295817090 ABAB
    8    8   25   10  -0.0272331942 ABAB
    8    8   10   25  -0.0272331942 ABAB
    8    7   14   14  -0.0268012305 ABAB
--------------------------------------------------------------------------------

  Eigenvector is saved on CCRE_2_1  

  Solution of   1 roots required   12 iterations.
 @CHECKOUT-I, Total execution time (CPU/WALL):        0.26/       0.21 seconds.
--executable xvee finished with status     0 in        0.77 seconds (walltime).
  The final electronic energy is      -459.962177358219549 a.u. 
  This computation required                           17.70 seconds (walltime).
