 --invoking executable--
/home/CEISAM/blondel-a/soft/cfour2.1/cfour2.1-serial-mkl/bin/xjoda


   *************************************************************************
         <<<     CCCCCC     CCCCCC   |||     CCCCCC     CCCCCC   >>>
       <<<      CCC        CCC       |||    CCC        CCC         >>>
      <<<      CCC        CCC        |||   CCC        CCC            >>>
    <<<        CCC        CCC        |||   CCC        CCC              >>>
      <<<      CCC        CCC        |||   CCC        CCC            >>>
       <<<      CCC        CCC       |||    CCC        CCC         >>>
         <<<     CCCCCC     CCCCCC   |||     CCCCCC     CCCCCC   >>>
   *************************************************************************

     ****************************************************************
     * CFOUR Coupled-Cluster techniques for Computational Chemistry *
     ****************************************************************
 

   Department of Chemistry                Institut fuer Physikalische Chemie
   University of Florida                  Universitaet Mainz
   Gainesville, FL 32611, USA             D-55099 Mainz, Germany

   Department of Chemistry                Fakultaet fuer Chemie und Biowiss.
   Johns Hopkins University               Karlsruher Institut fuer Technologie
   Baltimore, MD 21218, USA               D-76131 Karlsruhe, Germany

   Department of Chemistry                Department of Physical Chemistry
   Southern Methodist University          Eotvos Lorand University
   Dallas, TX 75275, USA                  H-1053 Budapest, Hungary

 
                       Version 2.1
 
                     cribbar053                                        
                     Tue May  4 19:10:18 CEST 2021                     
                     integer*8 version is running
 
********************************************************************************
*                          Input from ZMAT file                                *
********************************************************************************
Ketene -GS                                                                      
O     0.2109969467            0.0000000000            2.1546245985              
N    -0.4477686313            0.0000000000           -0.0358926349		            
H     1.1816347469            0.0000000000           -1.1738689010              
                                                                                
*CFOUR(COORD=CARTESIAN,UNITS=BOHR                                               
       MEMORY=240,MEM_UNIT=GB,CC_PROG=NCC                                       
       FROZEN_CORE=1                                                            
       CALC=CC3,BASIS=AUG-PVDZ                                                  
       SCF_CONV=10,CC_CONV=8,ESTATE_CONV=7,ESTATE_MAXCYC=80                     
       EXCITE=EOMEE,ESTATE_SYM=2/1)                                             
                                                                                
********************************************************************************
    -------------------------------------------------------------------
                    CFOUR Control Parameters 
    -------------------------------------------------------------------
        External           Internal           Value            Units
          Name               Name
    -------------------------------------------------------------------
       ABCDTYPE             IABCDT         STANDARD    [  0]    ***   
       ANHARMONIC           IANHAR         OFF         [  0]    ***   
       ANH_ALGORIT          IANALG         STANDARD    [  0]    ***   
       ANH_DERIVAT          IANDER         SECOND      [  1]    ***   
       ANH_MODE             ANHMOD         VIBRATION   [  0]    ***   
       ANH_STEPSIZ          ICUBST             50000          x 10-6  
       ANH_SYMMETR          IANHSM         ABELIAN     [  0]    ***   
       AO_LADDERS           IAOLAD         SINGLEPASS  [  1]    ***   
       AV_SCF               IAVSCF         OFF         [  0]    ***   
       BASIS                IBASIS         AUG-PVDZ    [ 33]    ***   
       BOTHVECTORS          BOTHVC         OFF         [  0]    ***   
       BOX_POTENT           IPIAB          OFF         [  0]    ***   
       BREIT                IBREIT         OFF         [  0]    ***   
       BRUCK_CONV           IBRTOL          10D-  4             ***   
       BRUECKNER            IBRKNR         OFF         [  0]    ***   
       BUFFERSIZE           IBUFFS              4096            ***   
       CACHE_RECS           ICHREC             10               ***   
       CALCLEVEL            ICLLVL         CC3         [ 32]    ***   
       CCORBOPT             ICCORB         OFF         [  0]  x 0.01  
       CC_CONV              ICCCNV          10D-  8             ***   
       CC_EXPORDER          ICCEOR              5               ***   
       CC_EXTRAPOL          ICCEXT         DIIS        [  1]    ***   
       CC_GUESS             ICCGES         MP2         [  0]    ***   
       CC_MAXCYC            ICCCYC            100              cycles 
       CC_PROGRAM           ICCPRO         NCC         [  5]    ***   
       CHARGE               ICHRGE              0               ***   
       CHOLESKY             ICHOLE         OFF         [  0]    ***   
       CIS_CONV             ICISTL              5               ***   
       COMM_SIZE            IPSIZE            ***               ***   
       CONSTANT             ICONST         OLD         [  1]    ***   
       CONTINUUM            ICONTU         NONE        [  0]    ***   
       CONTRACTION          ICNTYP         GENERAL     [  1]    ***   
       COORDINATES          ICOORD         CARTESIAN   [  1]    ***   
       CPHF_CONVER          ICPHFT          10D- 16             ***   
       CPHF_MAXCYC          ICPHFC             64              cycles 
       CUBIC                ICUBIC         OFF         [  0]    ***   
       CURVILINEAR          ICURVY         OFF         [  0]    ***   
       DBOC                 IDBOC          OFF         [  0]    ***   
       DCT                  IDCT           OFF         [  0]    ***   
       DERIV_LEV            IDRLVL         ZERO        [  0]    ***   
       DEVMEM_SIZE          IDVMEM         *********           MByte  
       DIAG_MRCC            IEOMST          10D-  0             ***   
       DIFF_TYPE            IDIFTY         RELAXED     [  0]    ***   
       DIRECT               IDIRCT         OFF         [  0]    ***   
       DROPMO               IDRPMO      NONE         
       ECP                  IECP           OFF         [  0]    ***   
       EIGENVECTOR          IVEC                1               ***   
       EL_ANHARM            IELANH         OFF         [  0]    ***   
       EOMFOLLOW            IEOMSR         ENERGY      [  0]    ***   
       EOMIP                IEOMIP         OFF         [  0]    ***   
       EOMLEVEL             HBARFM         SAME        [  0]    ***   
       EOM_MRCC             IMRCCE         NEW         [  1]    ***   
       EOM_NONIT            EOMNON         OFF         [  0]    ***   
       EOM_NSING            IEOMSI          10D-  0             ***   
       EOM_NSTATES          IMRCCD         DAVIDSON    [  0]    ***   
       EOM_NTRIP            IEOMTR          10D-  0             ***   
       EOM_ORDER            IEXORD         ENERGY      [  0]    ***   
       EOM_PROPSTA          IEOMST              0               ***   
       ESTATE_CONV          IEXTOL          10D-  7             ***   
       ESTATE_DIAG          IEXDIG         ITERATIVE   [  0]    ***   
       ESTATE_LOCK          IESLOC         ON          [  1]    ***   
       ESTATE_MAXC          IEXMXC             80               ***   
       ESTATE_PROP          IEXPRP         OFF         [  0]    ***   
       ESTATE_SYM           IEXSYM   2,  1,
       EVAL_HESS            IRECAL              0            # of cyc.
       EXCITATION           IEXCIT              0               ***   
       EXCITE               IEXCIT         EOMEE       [  3]    ***   
       EXTERN_POT           IEXPOT         OFF         [  0]    ***   
       FCGRADNEW            IFCGNW         OFF         [  0]    ***   
       FC_FIELD             IFINFC              0             x 10-6  
       FD_CALTYPE           IFDCAL         GRADONLY    [  0]    ***   
       FD_PROJECT           IFDPRJ         OFF         [  1]    ***   
       FD_STEPSIZE          IDISFD              0            10-4 bohr
       FD_USEGROUP          IFDGRP         FULL        [  0]    ***   
       FILE_RECSIZ          IFLREC              4096           words  
       FINITE_PERT          IFIPER              0             x 10-6  
       FIXGEOM              IFIXGM         OFF         [  0]    ***   
       FOCK                 IFOCK          AO          [  1]    ***   
       FREQ_ALGORI          IVIALG         STANDARD    [  0]    ***   
       FROZEN_CORE          IFROCO         ON          [  1]    ***   
       GAMMA_ABCD           IGABCD         STORE       [  0]    ***   
       GAMMA_ABCI           IGABCI         STORE       [  0]    ***   
       GENBAS_1             IGNBS1              0               ***   
       GENBAS_2             IGNBS2              0               ***   
       GENBAS_3             IGNBS3              0               ***   
       GENBAS_4             IGNBS4              0               ***   
       GEO_CONV             ICONTL              5              H/bohr 
       GEO_MAXCYC           IOPTCY             50               ***   
       GEO_MAXSTEP          IMXSTP            300            millibohr
       GEO_METHOD           INR            SINGLE_POINT[  5]    ***   
       GIAO                 IGIAO          OFF         [  1]    ***   
       GIMIC                IGIMIC         OFF         [  0]    ***   
       GRID                 IGRID          OFF         [  0]    ***   
       GRID_ALGO            IGALGO         SERIAL      [  0]    ***   
       GUESS                IGUESS         MOREAD      [  0]    ***   
       HBAR                 IHBAR          ON          [  1]    ***   
       HESS_TYPE            IHESTP         SCF         [  0]    ***   
       HF2_FILE             IHF2Fl         USE         [  1]    ***   
       HFSTABILITY          ISTABL         OFF         [  0]    ***   
       INCORE               INCORE         OFF         [  0]    ***   
       INPUT_MRCC           IMRCC          ON          [  1]    ***   
       INTEGRALS            INTTYP         VMOL        [  1]    ***   
       JODA_PRINT           IJPRNT              0               ***   
       KEYWORD_OUT          IDMPKW         NO          [  0]    ***   
       LINDEP_TOL           ILINDP              8               ***   
       LINEQ_CONV           IZTACN          10D-  7           cycles  
       LINEQ_EXPOR          ILMAXD              5               ***   
       LINEQ_MAXCY          ILMAXC            100               ***   
       LINEQ_TYPE           ILTYPE         DIIS        [  1]    ***   
       LOCK_ORBOCC          ILOCOC         OFF         [  0]    ***   
       MEMORY_SIZE          IMEMSZ         *********           words  
       MEM_UNIT             IMEMU          GB          [  3]    ***   
       MRCC                 IMRCCC         OFF         [  0]    ***   
       MULTIPLICTY          IMULTP              1               ***   
       NACOUPLING           IVCOUP         OFF         [  0]    ***   
       NEGEVAL              IDIE           ABORT       [  0]    ***   
       NEWNORM              INEWNO         OFF         [  0]    ***   
       NON-HF               INONHF         OFF         [  0]    ***   
       NTOP_TAMP            ITOPT2             15               ***   
       NUC_MODEL            INUCMO         POINT       [  0]    ***   
       OCCUPATION           IOCCU   ESTIMATED BY SCF 
       OPEN-SHELL           IOPEN          SPIN-ORBITAL[  0]    ***   
       OPTVIB               IOPTVB         OFF         [  0]    ***   
       ORBITALS             IORBTP         STANDARD    [  0]    ***   
       PARALLEL             IPARAL         ON          [  1]    ***   
       PARA_INT             IPINTS         ON          [  1]    ***   
       PARA_PRINT           IPPRIN              0               ***   
       PERT_ORB             IPTORB         STANDARD    [  0]    ***   
       POINTS               IGRDFD              0               ***   
       PRINT                IPRNT               0               ***   
       PROPS                IPROPS         OFF         [  0]    ***   
       PROP_INTEGR          IINTYP         INTERNAL    [  0]    ***   
       PSI                  IPSI           OFF         [  0]    ***   
       QC_ALG               IQCALG         FLM         [  0]    ***   
       QC_LINALG            IQCLIN         TRIDIAG     [  2]    ***   
       QC_MAXCYC            IQCMAX          10D-100           cycles  
       QC_MAXSCFCY          IQCMSC          10D- 15           cycles  
       QC_RTRUST            IQCRTR          10D-  0           x 10-3  
       QC_SKIPSCF           IQCSKI         OFF         [  0]    ***   
       QC_START             IQCSTA          10D-  1             ***   
       QRHFGUESS            IQGUES         OFF         [  0]    ***   
       QUARTIC              IQUART         OFF         [  0]    ***   
       RAMAN_INT            IRAMIN         OFF         [  0]    ***   
       RAMAN_ORB            IRAMRE         UNRELAXED   [  0]    ***   
       RDO                  IRDOFM         OFF         [  0]    ***   
       REDUCE_REPR          REDREP         Ir          [  0]    ***   
       REFERENCE            IREFNC         RHF         [  0]    ***   
       RELATIVIST           IRELAT         OFF         [  0]    ***   
       RELAX_DENS           IRDENS         OFF         [  0]    ***   
       RESET_FLAGS          IRESET         OFF         [  0]    ***   
       RESTART_CC           ICCRES         OFF         [  0]    ***   
       ROT_EVEC             ROTVEC              0               ***   
       SAVE_INTS            ISVINT         OFF         [  0]    ***   
       SCALE_ON             ISTCRT              0               ***   
       SCF_CONV             ISCFCV          10D- 10             ***   
       SCF_DAMPING          IDAMP               0             x 10-3  
       SCF_EXPORDE          IRPPOR              6               ***   
       SCF_EXPSTAR          IRPPLS              8               ***   
       SCF_EXTRAPO          IRPP           ON          [  1]    ***   
       SCF_MAXCYC           ISCFCY            150              cycles 
       SCF_NOSTOP           ISCFST         OFF         [  0]    ***   
       SCF_PRINT            ISCFPR              0               ***   
       SCF_PROG             ISCFPR         SCF         [  0]    ***   
       SD_FIELD             IFINSD              0             x 10-6  
       SOPERT               IPERSO         OFF         [  0]    ***   
       SPHERICAL            IDFGHI         ON          [  1]    ***   
       SPINORBIT            ISOCAL         OFF         [  0]    ***   
       SPINROTATIO          ISRCON         OFF         [  0]    ***   
       SPIN_FLIP            ISPFLP         OFF         [  0]    ***   
       SPIN_ORBIT           ISPORB         OFF         [  0]    ***   
       SPIN_SCAL            ISCSMP         OFF         [  0]    ***   
       STEEPSCALE           ISTPSC              1000          x 10-3  
       SUBGROUP             ISUBGP         DEFAULT     [  0]    ***   
       SUBGRPAXIS           ISBXYZ         X           [  0]    ***   
       SYMMETRY             ISYM           ON          [  0]    ***   
       SYM_CHECK            ISYMCK         OVERRIDE    [  1]    ***   
       T3_EXTRAPOL          IT3EXT         ON          [  1]    ***   
       T4_EXTRAPOL          IT4EXP         OFF         [  0]    ***   
       TAMP_SUM             IEVERY              5               ***   
       TESTSUITE            ITESTS         OFF         [  0]    ***   
       THERMOCH             ITHERM         OFF         [  0]    ***   
       TOL_CHOLESK          ITOLCH          10D-  4             ***   
       TRANGRAD             IRESRM         OFF         [  0]    ***   
       TRANS_INV            ITRAIN         USE         [  0]    ***   
       TREAT_PERT           ITREAT         SIMULTANEOUS[  0]    ***   
       TRIP_ALGORI          ITRALG         NORMAL      [  0]    ***   
       UIJ_THRESHO          IUIJTH              1               ***   
       UNITS                IUNITS         BOHR        [  1]    ***   
       UNOS                 IUNOS          OFF         [  0]    ***   
       UPDATE_HESS          IHUPDT         ON          [  1]    ***   
       VIBPHASE             ISETPH         STANDARD    [  0]    ***   
       VIBRATION            IVIB           NO          [  0]    ***   
       VIB_ALGORIT          IGEALG         STANDARD    [  0]    ***   
       VNATORB              IVNORB         OFF         [  0]    ***   
       VTRAN                IVTRAN         FULL/PARTIAL[  0]    ***   
       XFIELD               IXEFLD              0             x 10-6  
       XFORM_TOL            IXFTOL          10D- 11             ***   
       YFIELD               IYEFLD              0             x 10-6  
       ZFIELD               IZEFLD              0             x 10-6  
       ZSCALE_EXP           IZEXPS         OFF         [  0]    ***   
    -------------------------------------------------------------------
  @GETXYZ-I,     3 atoms read from ZMAT.
   Rotational constants (in cm-1): 
          1.3131228529             1.4110999943            18.9120403458
   Rotational constants (in MHz): 
      39366.4382885123         42303.7195034428        566968.7855359877
********************************************************************************
   The full molecular point group is C s .
   The largest Abelian subgroup of the full molecular point group is C s .
   The computational point group is C s .
********************************************************************************


 ----------------------------------------------------------------
         Coordinates used in calculation (QCOMP) 
 ----------------------------------------------------------------
 Z-matrix   Atomic            Coordinates (in bohr)
  Symbol    Number           X              Y              Z
 ----------------------------------------------------------------
     O         8         1.12868241     0.03597962    -0.00000000
     N         7        -1.15024698    -0.16104487     0.00000000
     H         1        -1.93107452     1.66659122    -0.00000000
 ----------------------------------------------------------------
 
   Interatomic distance matrix (Angstroms) 
 
                 O             N             H    
                [ 1]        [ 2]        [ 3]
  O    [ 1]     0.00000
  N    [ 2]     1.21046     0.00000
  H    [ 3]     1.83473     1.05171     0.00000
 rotcon2
   Rotational constants (in cm-1): 
         18.9120403458             1.4110999943             1.3131228529
   Rotational constants (in MHz): 
     566968.7855359877         42303.7195034428         39366.4382885123
  There are   2 frozen-core orbitals.
  There are   55 basis functions.
 @GEOPT-W, Archive file not created for single-point calculation.
 @CHECKOUT-I, Total execution time (CPU/WALL):        0.19/       1.54 seconds.
--executable xjoda finished with status     0 in        2.15 seconds (walltime).
 --invoking executable--
/home/CEISAM/blondel-a/soft/cfour2.1/cfour2.1-serial-mkl/bin/xvmol
 SERIAL VERSION OF MOLECULE STARTED
********************************************************************************
                    INPUT FROM MOL FILE
********************************************************************************
INTGRL        1    0    1    0    0    0    0    0    0                         
         *** CFOUR Program System (Release V0.1) ***                            
Ketene -GS                                                                      
    3    1 Z          0.10E-08              0    0                              
   9999.00      3.00                                                            
          8.00000000    1    3    1    1    1                                   
O #1   1.128682413453890   0.035979618975462  -0.000000000000000                
   10    4                                                                      
   11720.0000000000       7.100000000000000E-004 -1.600000000000000E-004        
  0.000000000000000E+000  0.000000000000000E+000                                
   1759.00000000000       5.470000000000000E-003 -1.263000000000000E-003        
  0.000000000000000E+000  0.000000000000000E+000                                
   400.800000000000       2.783700000000000E-002 -6.267000000000000E-003        
  0.000000000000000E+000  0.000000000000000E+000                                
   113.700000000000       0.104800000000000      -2.571600000000000E-002        
  0.000000000000000E+000  0.000000000000000E+000                                
   37.0300000000000       0.283062000000000      -7.092400000000000E-002        
  0.000000000000000E+000  0.000000000000000E+000                                
   13.2700000000000       0.448719000000000      -0.165411000000000             
  0.000000000000000E+000  0.000000000000000E+000                                
   5.02500000000000       0.270952000000000      -0.116955000000000             
  0.000000000000000E+000  0.000000000000000E+000                                
   1.01300000000000       1.545800000000000E-002  0.557368000000000             
  0.000000000000000E+000  0.000000000000000E+000                                
  0.302300000000000      -2.585000000000000E-003  0.572759000000000             
   1.00000000000000       0.000000000000000E+000                                
  7.896000000000000E-002  0.000000000000000E+000  0.000000000000000E+000        
  0.000000000000000E+000   1.00000000000000                                     
    5    3                                                                      
   17.7000000000000       4.301800000000000E-002  0.000000000000000E+000        
  0.000000000000000E+000                                                        
   3.85400000000000       0.228913000000000       0.000000000000000E+000        
  0.000000000000000E+000                                                        
   1.04600000000000       0.508728000000000       0.000000000000000E+000        
  0.000000000000000E+000                                                        
  0.275300000000000       0.460531000000000        1.00000000000000             
  0.000000000000000E+000                                                        
  6.856000000000000E-002  0.000000000000000E+000  0.000000000000000E+000        
   1.00000000000000                                                             
    2    2                                                                      
   1.18500000000000        1.00000000000000       0.000000000000000E+000        
  0.332000000000000       0.000000000000000E+000   1.00000000000000             
          7.00000000    1    3    1    1    1                                   
N #2  -1.150246981171121  -0.161044874157106   0.000000000000000                
   10    4                                                                      
   9046.00000000000       7.000000000000000E-004 -1.530000000000000E-004        
  0.000000000000000E+000  0.000000000000000E+000                                
   1357.00000000000       5.389000000000000E-003 -1.208000000000000E-003        
  0.000000000000000E+000  0.000000000000000E+000                                
   309.300000000000       2.740600000000000E-002 -5.992000000000000E-003        
  0.000000000000000E+000  0.000000000000000E+000                                
   87.7300000000000       0.103207000000000      -2.454400000000000E-002        
  0.000000000000000E+000  0.000000000000000E+000                                
   28.5600000000000       0.278723000000000      -6.745900000000001E-002        
  0.000000000000000E+000  0.000000000000000E+000                                
   10.2100000000000       0.448540000000000      -0.158078000000000             
  0.000000000000000E+000  0.000000000000000E+000                                
   3.83800000000000       0.278238000000000      -0.121831000000000             
  0.000000000000000E+000  0.000000000000000E+000                                
  0.746600000000000       1.544000000000000E-002  0.549003000000000             
  0.000000000000000E+000  0.000000000000000E+000                                
  0.224800000000000      -2.864000000000000E-003  0.578815000000000             
   1.00000000000000       0.000000000000000E+000                                
  6.124000000000000E-002  0.000000000000000E+000  0.000000000000000E+000        
  0.000000000000000E+000   1.00000000000000                                     
    5    3                                                                      
   13.5500000000000       3.991900000000000E-002  0.000000000000000E+000        
  0.000000000000000E+000                                                        
   2.91700000000000       0.217169000000000       0.000000000000000E+000        
  0.000000000000000E+000                                                        
  0.797300000000000       0.510319000000000       0.000000000000000E+000        
  0.000000000000000E+000                                                        
  0.218500000000000       0.462214000000000        1.00000000000000             
  0.000000000000000E+000                                                        
  5.611000000000000E-002  0.000000000000000E+000  0.000000000000000E+000        
   1.00000000000000                                                             
    2    2                                                                      
  0.817000000000000        1.00000000000000       0.000000000000000E+000        
  0.230000000000000       0.000000000000000E+000   1.00000000000000             
          1.00000000    1    2    1    1                                        
H #3  -1.931074523923707   1.666591221890307  -0.000000000000004                
    5    3                                                                      
   13.0100000000000       1.968500000000000E-002  0.000000000000000E+000        
  0.000000000000000E+000                                                        
   1.96200000000000       0.137977000000000       0.000000000000000E+000        
  0.000000000000000E+000                                                        
  0.444600000000000       0.478148000000000       0.000000000000000E+000        
  0.000000000000000E+000                                                        
  0.122000000000000       0.501240000000000        1.00000000000000             
  0.000000000000000E+000                                                        
  2.974000000000000E-002  0.000000000000000E+000  0.000000000000000E+000        
   1.00000000000000                                                             
    2    2                                                                      
  0.727000000000000        1.00000000000000       0.000000000000000E+000        
  0.141000000000000       0.000000000000000E+000   1.00000000000000             
FINISH                                                                          
 
********************************************************************************
 ONE- AND TWO-ELECTRON INTEGRALS OVER SYMMETRY-ADAPTED AOS ARE CALCULATED.

  SPHERICAL HARMONICS ARE USED.
  
  INTEGRALS LESS THAN  0.10E-13 ARE NEGLECTED.

  NUCLEAR REPULSION ENERGY :   30.3111081534 A.U.
  @MOLECU-I, ONE ELECTRON INTEGRALS (CPU/WALL):        0.03/       0.05 SECONDS.
  @TWOEL-I,     298632 INTEGRALS OF SYMMETRY TYPE  I I I I
  @TWOEL-I,     185478 INTEGRALS OF SYMMETRY TYPE  I J I J
  @TWOEL-I,     100384 INTEGRALS OF SYMMETRY TYPE  I I J J
  @TWOEL-I, TOTAL NUMBER OF 2-E INTEGRALS     584494.
  @MOLECU-I, TWO ELECTRON INTEGRALS (CPU/WALL):        1.10/       0.35 SECONDS.
 @CHECKOUT-I, Total execution time (CPU/WALL):        1.14/       0.44 seconds.

Running with 20 threads/proc

--executable xvmol finished with status     0 in        0.99 seconds (walltime).
 --invoking executable--
/home/CEISAM/blondel-a/soft/cfour2.1/cfour2.1-serial-mkl/bin/xvmol2ja
 @GETMEM-I,  Allocated  228881 MB of main memory.
 @CHECKOUT-I, Total execution time (CPU/WALL):        0.11/       0.07 seconds.
--executable xvmol2ja finished with status     0 in        0.61 seconds (walltime).
 --invoking executable--
/home/CEISAM/blondel-a/soft/cfour2.1/cfour2.1-serial-mkl/bin/xvscf
  There are   55 functions in the AO basis.

  There are 2 irreducible representations.

       Irrep        # of functions
         1                 39
         2                 16


  Parameters for SCF calculation: 
        SCF reference function:  RHF  
  Maximum number of iterations:  150
     Full symmetry point group: C s 
     Computational point group: C s 
        Initial density matrix: MOREAD                 
     SCF convergence tolerance: 10**(-10)
  DIIS convergence acceleration:  ON
          Latest start for DIIS:   8
                     DIIS order:   6

  Memory information:     166958 words required.
  Fock matrices are constructed from AO integral file.
 @GETMEM-I,  Allocated       1 MB of main memory.
  Initialization and symmetry analysis required      0.003 seconds.

  @INITGES-I, Occupancies from core Hamiltonian:

          Alpha population by irrep:   7    1
           Beta population by irrep:   7    1


 total no. of electrons in initial guess :  0.000000000000000E+000
  --------------------------------------------------------------------
  Iteration         Total Energy            Largest Density Difference
  --------------------------------------------------------------------
       0            30.311108153439086              0.0000000000D+00
   current occupation vector 
     7  1
     7  1
       1          -117.652475054198732              0.1144765285D+02
   current occupation vector 
     7  1
     7  1
       2          -113.017915763252489              0.4181735549D+02
   current occupation vector 
     7  1
     7  1
       3          -120.986620100473459              0.4204115718D+02
   current occupation vector 
     7  1
     7  1
       4          -116.260276213087764              0.7665235154D+01
   current occupation vector 
     7  1
     7  1
       5          -116.952083270246277              0.1004600090D+02
   current occupation vector 
     7  1
     7  1
       6          -113.545535995840709              0.1005635893D+02
   current occupation vector 
     7  1
     7  1
       7          -112.385225973706014              0.8286533537D+01
   current occupation vector 
     6  2
     6  2
       8          -111.680379098893837              0.8236939672D+01
   current occupation vector 
     7  1
     7  1
       9          -129.049189282576748              0.5836599499D+01
   current occupation vector 
     7  1
     7  1
      10          -129.524082721061461              0.4487800407D+00
   current occupation vector 
     7  1
     7  1
      11          -129.767638210982398              0.3549521968D+00
   current occupation vector 
     7  1
     7  1
      12          -129.806918470287826              0.2279722736D+00
   current occupation vector 
     7  1
     7  1
      13          -129.809321526951805              0.7114433556D-01
   current occupation vector 
     7  1
     7  1
      14          -129.810328633033038              0.3599954744D-01
   current occupation vector 
     7  1
     7  1
      15          -129.810465856439663              0.2291433122D-01
   current occupation vector 
     7  1
     7  1
      16          -129.810466741793647              0.1471239579D-02
   current occupation vector 
     7  1
     7  1
      17          -129.810466802548206              0.4195738403D-03
   current occupation vector 
     7  1
     7  1
      18          -129.810466804899960              0.8498007140D-04
   current occupation vector 
     7  1
     7  1
      19          -129.810466805013732              0.1490975289D-04
   current occupation vector 
     7  1
     7  1
      20          -129.810466805025044              0.5318051327D-05
   current occupation vector 
     7  1
     7  1
      21          -129.810466805025669              0.7802809621D-06
   current occupation vector 
     7  1
     7  1
      22          -129.810466805025868              0.2599858553D-06
   current occupation vector 
     7  1
     7  1
      23          -129.810466805026323              0.8327605072D-07
   current occupation vector 
     7  1
     7  1
      24          -129.810466805026209              0.1539832395D-07
   current occupation vector 
     7  1
     7  1
      25          -129.810466805026238              0.6725143553D-08
   current occupation vector 
     7  1
     7  1
      26          -129.810466805026437              0.9811793600D-09
   current occupation vector 
     7  1
     7  1
      27          -129.810466805026294              0.2910787167D-09
   current occupation vector 
     7  1
     7  1
      28          -129.810466805025811              0.1151203577D-09
   current occupation vector 
     7  1
     7  1

  SCF has converged.

 Density matrix saved to file den.dat
 total electron number:   16.0000000000000     
     E(SCF)=      -129.810466805026067              0.2509525920D-10

  Eigenvector printing suppressed.

 @PUTMOS-I, Writing converged MOs to NEWMOS. 
 @PUTMOS-I, Symmetry   1 Full Blocks  9 Partial Blocksize   3
 @PUTMOS-I, Symmetry   2 Full Blocks  4 Partial Blocksize   0
 @PUTFOCK-I, Writing converged Fock matrix to NEWFOCK. 
 @PUTFOCK-I, Symmetry   1 Full Blocks  9 Partial Blocksize   3
 @PUTFOCK-I, Symmetry   2 Full Blocks  4 Partial Blocksize   0


 
  ORBITAL EIGENVALUES (ALPHA)  (1H = 27.2113834 eV)

       MO #        E(hartree)               E(eV)           FULLSYM    COMPSYM
       ----   --------------------   --------------------   -------   ---------
    1     1         -20.6659607752        -562.3493819826     A'        A'  (1)
    2     2         -15.7242349028        -427.8781846116     A'        A'  (1)
    3     3          -1.5343888154         -41.7528423417     A'        A'  (1)
    4     4          -0.9979423899         -27.1553929816     A'        A'  (1)
    5     5          -0.7476360202         -20.3442103895     A'        A'  (1)
    6     6          -0.6658940438         -18.1198981295     A'        A'  (1)
    7    40          -0.5959908315         -16.2177350178     A''       A'' (2)
    8     7          -0.4307082843         -11.7201682586     A'        A'  (1)
  +++++++++++++++++++++++++++++++++++++++++++++++++++++++++++++++++++++++++++++
    9     8           0.0354730731           0.9652713938     A'        A'  (1)
   10    41           0.0646379372           1.7588876921     A''       A'' (2)
   11     9           0.1108072311           3.0152180501     A'        A'  (1)
   12    10           0.1468961173           3.9972465672     A'        A'  (1)
   13    42           0.1598466591           4.3496487264     A''       A'' (2)
   14    11           0.1923228797           5.2333716155     A'        A'  (1)
   15    12           0.2183222407           5.9408501960     A'        A'  (1)
   16    13           0.2446566981           6.6574472129     A'        A'  (1)
   17    43           0.2580519658           7.0219509790     A''       A'' (2)
   18    14           0.2979785168           8.1084076646     A'        A'  (1)
   19    44           0.3715004070          10.1090400089     A''       A'' (2)
   20    15           0.3794132153          10.3243584674     A'        A'  (1)
   21    16           0.4542211072          12.3599846957     A'        A'  (1)
   22    17           0.5659183702          15.3994217433     A'        A'  (1)
   23    18           0.6047104944          16.4550091078     A'        A'  (1)
   24    19           0.6994713314          19.0335825755     A'        A'  (1)
   25    45           0.7565347832          20.5863580411     A''       A'' (2)
   26    46           0.8327050963          22.6590576337     A''       A'' (2)
   27    20           0.8368388873          22.7715438069     A'        A'  (1)
   28    21           0.9215114375          25.0756010335     A'        A'  (1)
   29    22           0.9781215706          26.6160410700     A'        A'  (1)
   30    23           1.0228357042          27.8327745028     A'        A'  (1)
   31    47           1.0848713274          29.5208496289     A''       A'' (2)
   32    48           1.1378539651          30.9625804982     A''       A'' (2)
   33    24           1.1960146851          32.5452141469     A'        A'  (1)
   34    25           1.2239782217          33.3061406628     A'        A'  (1)
   35    49           1.2464539523          33.9177363851     A''       A'' (2)
   36    26           1.3469320626          36.6518847699     A'        A'  (1)
   37    27           1.4904515303          40.5572480306     A'        A'  (1)
   38    50           1.6747826547          45.5731529289     A''       A'' (2)
   39    28           1.7425562494          47.4173661977     A'        A'  (1)
   40    51           1.8892948662          51.4103269591     A''       A'' (2)
   41    29           1.9253604280          52.3917207887     A'        A'  (1)
   42    30           2.0717392094          56.3748899330     A'        A'  (1)
   43    31           2.2370247437          60.8725379754     A'        A'  (1)
   44    32           2.2884005583          62.2705449635     A'        A'  (1)
   45    52           2.4633589960          67.0314060916     A''       A'' (2)
   46    33           2.5987031645          70.7143081515     A'        A'  (1)
   47    53           2.6055471184          70.9005416053     A''       A'' (2)
   48    34           2.7963887227          76.0936056691     A'        A'  (1)
   49    35           3.1084385304          84.5849126248     A'        A'  (1)
   50    36           3.4456748979          93.7615807176     A'        A'  (1)
   51    54           3.5646638197          96.9994338898     A''       A'' (2)
   52    37           3.6458024890          99.2073293293     A'        A'  (1)
   53    55           3.8104190269         103.6867730567     A''       A'' (2)
   54    38           3.8613670756         105.0731399411     A'        A'  (1)
   55    39           4.0134581188         109.2117476299     A'        A'  (1)


  VSCF finished.

 @CHECKOUT-I, Total execution time (CPU/WALL):        4.21/       0.58 seconds.
--executable xvscf finished with status     0 in        1.12 seconds (walltime).
 --invoking executable--
/home/CEISAM/blondel-a/soft/cfour2.1/cfour2.1-serial-mkl/bin/xvtran
 @GETMEM-I,  Allocated  228881 MB of main memory.
  Full RHF integral transformation
  The following   2 MOs will be dropped:
    1  2
  There are  53 active molecular orbitals.
  Transformation of IIII integrals :
  1 pass through the AO integral file was required.
      298632 AO integrals were read.
      256772 MO integrals were written to HF2.
  Transformation of IIJJ integrals :
  1 pass through the AO integral file was required.
      100384 AO integrals were read.
       95608 MO integrals were written to HF2.
  Transformation of IJIJ integrals :
  1 pass through the AO integral file was required.
      185478 AO integrals were read.
      175528 MO integrals were written to HF2.
  Summary of active molecular orbitals: 
------------------------------------------------------------------------
 
  Index      Eigenvalue    Symmetry    Index      Eigenvalue    Symmetry
------------------------------------------------------------------------
     1        -1.5343888        1        28         1.9253604        1
     2        -0.9979424        1        29         2.0717392        1
     3        -0.7476360        1        30         2.2370247        1
     4        -0.6658940        1        31         2.2884006        1
     5        -0.4307083        1        32         2.5987032        1
     6        -0.5959908        2        33         2.7963887        1
     7         0.0354731        1        34         3.1084385        1
     8         0.1108072        1        35         3.4456749        1
     9         0.1468961        1        36         3.6458025        1
    10         0.1923229        1        37         3.8613671        1
    11         0.2183222        1        38         4.0134581        1
    12         0.2446567        1        39         0.0646379        2
    13         0.2979785        1        40         0.1598467        2
    14         0.3794132        1        41         0.2580520        2
    15         0.4542211        1        42         0.3715004        2
    16         0.5659184        1        43         0.7565348        2
    17         0.6047105        1        44         0.8327051        2
    18         0.6994713        1        45         1.0848713        2
    19         0.8368389        1        46         1.1378540        2
    20         0.9215114        1        47         1.2464540        2
    21         0.9781216        1        48         1.6747827        2
    22         1.0228357        1        49         1.8892949        2
    23         1.1960147        1        50         2.4633590        2
    24         1.2239782        1        51         2.6055471        2
    25         1.3469321        1        52         3.5646638        2
    26         1.4904515        1        53         3.8104190        2
    27         1.7425562        1
------------------------------------------------------------------------
  -1.53438881544425      -0.997942389861129      -0.747636020208015     
 -0.665894043794928      -0.430708284335068      -0.595990831463831     
  3.547307314860038E-002  0.110807231141886       0.146896117277901     
  0.192322879676152       0.218322240685748       0.244656698081536     
  0.297978516764480       0.379413215258533       0.454221107173801     
  0.565918370152809       0.604710494351063       0.699471331381949     
  0.836838887321445       0.921511437508579       0.978121570620638     
   1.02283570422214        1.19601468505079        1.22397822166007     
   1.34693206262672        1.49045153031773        1.74255624937091     
   1.92536042797257        2.07173920944467        2.23702474367496     
   2.28840055825854        2.59870316448043        2.79638872271147     
   3.10843853035506        3.44567489786718        3.64580248901703     
   3.86136707555638        4.01345811877909       6.463793722743072E-002
  0.159846659113859       0.258051965818048       0.371500407027402     
  0.756534783199136       0.832705096267775        1.08487132737468     
   1.13785396512462        1.24645395225021        1.67478265470588     
   1.88929486617368        2.46335899598490        2.60554711839174     
   3.56466381969376        3.81041902693968     
 @CHECKOUT-I, Total execution time (CPU/WALL):        4.09/       0.37 seconds.
--executable xvtran finished with status     0 in        0.91 seconds (walltime).
 --invoking executable--
/home/CEISAM/blondel-a/soft/cfour2.1/cfour2.1-serial-mkl/bin/xintprc
 @GETMEM-I,  Allocated  228881 MB of main memory.
  @GMOIAA-I, Processing MO integrals for spin case AA.
  @GMOIAA-I, Generation of integral list completed.
                      TYPE                NUMBER
                      ----               --------
                      PPPP                325716
                      PPPH                164760
                      PPHH                 21178
                      PHPH                 12768
                      PHHH                  3335
                      HHHH                   151

                     TOTAL                527908

  @FORMT2-I, Second-order MP correlation energies:
            ------------------------------------------------
            E(SCF)                  =   -129.810466805026 a.u.
            E2(AA)                  =     -0.047574697375 a.u.
            E2(AB)                  =     -0.272887799203 a.u.
            E2(TOT)                 =     -0.368037193953 a.u.
            Total MP2 energy        =   -130.178503998979 a.u.
            ------------------------------------------------
   Largest T2 amplitudes for spin case AB:
       _       _                 _       _                 _       _
   i   j   a   b             i   j   a   b             i   j   a   b
-----------------------------------------------------------------------------
[  6   6  39  39]-0.09293 [  6   6  41  39]-0.03646 [  6   6  39  41]-0.03646
[  6   6  40  39]-0.02980 [  6   6  39  40]-0.02980 [  2   2  39  39]-0.02440
[  6   4  39  17]-0.02293 [  4   6  17  39]-0.02293 [  6   3  39  17]-0.02229
[  3   6  17  39]-0.02229 [  6   6  41  41]-0.01756 [  4   4  17  17]-0.01741
[  6   6  47  39]-0.01720 [  6   6  39  47]-0.01720 [  5   5  39  39]-0.01714
-----------------------------------------------------------------------------
   Norm of T2AB vector (    42074 symmetry allowed elements):  0.2960686635.
-----------------------------------------------------------------------------
 @CHECKOUT-I, Total execution time (CPU/WALL):        1.24/       0.28 seconds.
--executable xintprc finished with status     0 in        0.83 seconds (walltime).
  calling xncc 
 --invoking executable--
/home/CEISAM/blondel-a/soft/cfour2.1/cfour2.1-serial-mkl/bin/xncc
 @GETMEM-I,  Allocated       7 MB of main memory.

Running with 20 threads/proc

Following the lowest-energy eigenvector.
Using a partitioned Davidson procedure.
Using discrete restarting.
Using an orthogonal subspace.
Orthogonalizing against previous roots.
Using Modified Gram-Schmidt orthogonalization.

Using DIIS to accelerate the convergence of T1 and T2
Using immediate high-order contributions
Performing 3 CCSD sub-iterations
Damping factor for T3: 0.000000
Damping factor for T4: 0.000000

Transposes are coarse-threaded

Memory limit:                223.517 GiB
Minimum memory requirement:   37.866 MiB
Compromise memory amount:     41.084 MiB
Optimal memory requirement:   99.482 MiB

List              Location   Size        Cached Hunks Est. Disk I/O
----------------- ---------- ----------- ------ ----- -------------

           HR_DAV      470:1   10.315 MiB    Yes     -    14.679 GiB
                R        471  953.555 KiB    Yes     -    83.809 MiB
            R_DAV      470:0   10.315 MiB    Yes     -    26.824 GiB
           T_DIIS       70:0    1.612 MiB    Yes     -    29.010 MiB
           Z_DIIS       70:1    1.612 MiB    Yes     -    48.350 MiB
          <AI|bj>         18  328.703 KiB    Yes     -    58.959 MiB
          <Ab|Cd>        233   18.933 MiB    Yes     -     2.367 GiB
          <Ab|Ci>         30    2.451 MiB    Yes     -     3.067 GiB
          <Ab|Ij>         16  328.703 KiB    Yes     -   443.621 MiB
          <Ai|Bj>         25  328.703 KiB    Yes     -    44.940 MiB
          <Aj|bI>         21  328.703 KiB     No     -         0   B
          <Ij|Ka>         10   43.906 KiB    Yes     -    63.544 MiB
          <Ij|Kl>         13    6.062 KiB    Yes     -   478.938 KiB
           DD(AI)      448:8    1.367 KiB    Yes     -    55.758 KiB
        DD(Ab,Ij)        450  328.703 KiB    Yes     -    14.523 MiB
            F(EA)       92:0    9.758 KiB    Yes     -     3.612 MiB
            F(EM)       93:0    1.367 KiB    Yes     -   683.594 KiB
            F(MI)       91:0      208   B    Yes     -    89.172 KiB
           HR(AI)      490:2    1.367 KiB    Yes     -     3.963 MiB
        HR(Ab,Ij)        463  328.703 KiB    Yes     -     1.572 GiB
            Q(AI)      190:2    1.367 KiB    Yes     -   225.586 KiB
         Q(Ab,Ij)         50  328.703 KiB    Yes     -   178.155 MiB
            R(AI)      490:0    1.367 KiB    Yes     -     8.657 MiB
         R(Ab,Ij)        446  328.703 KiB    Yes     -     2.451 GiB
            T(AI)       90:0    1.367 KiB    Yes     -     2.090 MiB
         T(Ab,Ij)         46  328.703 KiB    Yes     -   686.617 MiB
         W(Mn,Ij)         53    6.062 KiB    Yes     -  1012.438 KiB
        W~(Ab,Ej)        130    2.451 MiB    Yes     -   716.323 MiB
        W~(EM,bj)         56  328.703 KiB    Yes     -   121.953 MiB
        W~(Em,Bj)         58  328.703 KiB    Yes     -   113.634 MiB
        W~(Ij,Mb)        110   43.906 KiB    Yes     -    16.679 MiB
       W~~(Ab,Ef)         33   18.933 MiB    Yes     -   889.856 MiB
       W~~(Ab,Ej)        169    2.451 MiB    Yes     -     2.434 GiB
       W~~(EM,bj)         76  328.703 KiB    Yes     -    53.286 MiB
       W~~(Em,Bj)         78  328.703 KiB    Yes     -    53.286 MiB
       W~~(Ij,Mb)        165   43.906 KiB    Yes     -    24.011 MiB
       W~~(Mn,Ij)        153    6.062 KiB    Yes     -   278.875 KiB
         X(Ab,Ej)        430    2.451 MiB    Yes     -     1.375 GiB
         X(Ab,Ij)        416  328.703 KiB     No     -         0   B
            X(EA)      492:0    9.758 KiB    Yes     -     1.583 MiB
            X(EM)      493:0    1.367 KiB    Yes     -   267.773 KiB
         X(EM,bj)        418  328.703 KiB     No     -         0   B
         X(Ef,Am)        469    2.451 MiB     No     -         0   B
         X(Em,Bj)        425  328.703 KiB     No     -         0   B
         X(Ij,Mb)        410   43.906 KiB    Yes     -    19.855 MiB
            X(MI)      491:0      208   B    Yes     -    29.062 KiB
         X(Mn,Ie)        465   43.906 KiB     No     -         0   B
         X(Mn,Ij)        413    6.062 KiB    Yes     -   485.625 KiB
            Z(AI)       90:2    1.367 KiB    Yes     -   635.742 KiB
         Z(Ab,Ij)         63  328.703 KiB    Yes     -   149.265 MiB
      HR(abc,ijk)          -   20.177 MiB     No     1         0   B
       T(abc,ijk)          -   20.177 MiB     No     1         0   B
       Z(abc,ijk)          -   20.177 MiB     No     1         0   B

Simulation and memory analysis took 0.141 seconds

MP2 correlation energy:  -0.368037193953082

Non-iterative calculation of MP2 took 0.270 cpu seconds and 0.014 walltime seconds at 0.149 Gflops/sec

Total MP2 energy: -130.178503998979153

Beginning iterative solution of CC3 equations:

It.  Correlation Energy T1 Residual T2 Residual CPU Time (s) Walltime (s)
-------------------------------------------------------------------------
  1  -0.392803143183217 5.68179e-03 1.32044e-02        3.802        0.193
  2  -0.393483240997481 1.13639e-03 2.71849e-03        3.526        0.177
  3  -0.393644851246782 2.03054e-04 1.30748e-03        3.287        0.165
  4  -0.393688147803913 6.23886e-05 5.03054e-04        3.023        0.152
  5  -0.393699084713525 1.89386e-05 1.43287e-04        3.039        0.152

   A    I                     A    I                     A    I                  
-------------------------- -------------------------- -------------------------- 
  18    8 -0.0215889132160   31    7  0.0127287731526   21    6 -0.0081057592140 
  10    7 -0.0178299045096   32    7  0.0114555480043    9    8 -0.0078425027521 
  13    7 -0.0176308133855   12    8 -0.0111497928317   16    6  0.0077869676440 
  38    7  0.0158009973179   26    7  0.0102332863215   12    6  0.0076473508624 
  16    8  0.0147112931965   14    6  0.0081711418918   16    5 -0.0073792612626 

   A    B    I    J                     A    B    I    J                  
------------------------------------ ------------------------------------ 
  10   10    7    7 -0.1342928795459   35   10    7    7 -0.0227470317013 
  10   10    8    8 -0.0578914524205   10   35    7    7 -0.0227470317013 
  17   10    7    7 -0.0506057075838   17   17    7    7 -0.0216805443215 
  10   17    7    7 -0.0506057075838   10   23    7    6 -0.0211962866408 
  13   10    7    7 -0.0445716700666   23   10    6    7 -0.0211962866408 
  10   13    7    7 -0.0445716700666   10   23    7    5 -0.0208587646041 
  10   10    4    4 -0.0291171796500   23   10    5    7 -0.0208587646041 
  18   18    8    8 -0.0251842176570 

It.  Correlation Energy T1 Residual T2 Residual CPU Time (s) Walltime (s)
-------------------------------------------------------------------------
  6  -0.393701180927110 3.89210e-06 4.13106e-05        3.446        0.173
  7  -0.393702088693125 1.00401e-06 1.28156e-05        3.398        0.170
  8  -0.393702366894460 1.37998e-07 3.80448e-06        2.908        0.146
  9  -0.393702431999509 6.89419e-08 1.12966e-06        2.920        0.146
 10  -0.393702451728070 2.02850e-08 3.44089e-07        2.910        0.146

   A    I                     A    I                     A    I                  
-------------------------- -------------------------- -------------------------- 
  18    8 -0.0216026615596   31    7  0.0127291817808   21    6 -0.0081045787950 
  10    7 -0.0178282480947   32    7  0.0114562473972    9    8 -0.0078724234134 
  13    7 -0.0176331531597   12    8 -0.0111705539932   16    6  0.0077849598843 
  38    7  0.0158016968822   26    7  0.0102337520516   12    6  0.0076438346134 
  16    8  0.0147073246111   14    6  0.0081723860202   16    5 -0.0073775814829 

   A    B    I    J                     A    B    I    J                  
------------------------------------ ------------------------------------ 
  10   10    7    7 -0.1343024687807   10   35    7    7 -0.0227481996962 
  10   10    8    8 -0.0578902473126   35   10    7    7 -0.0227481996962 
  17   10    7    7 -0.0506087788240   17   17    7    7 -0.0216811958006 
  10   17    7    7 -0.0506087788240   10   23    7    6 -0.0211945957603 
  13   10    7    7 -0.0445756987871   23   10    6    7 -0.0211945957603 
  10   13    7    7 -0.0445756987871   10   23    7    5 -0.0208583557470 
  10   10    4    4 -0.0291139046349   23   10    5    7 -0.0208583557470 
  18   18    8    8 -0.0251886742873 

It.  Correlation Energy T1 Residual T2 Residual CPU Time (s) Walltime (s)
-------------------------------------------------------------------------
 11  -0.393702457656322 3.14654e-09 1.03995e-07        2.913        0.146
 12  -0.393702459382177 6.44557e-10 3.00933e-08        2.914        0.146
 13  -0.393702459833901 3.17438e-10 8.93184e-09        2.932        0.147

CC3 iterations converged in 13 cycles and 2.060 seconds (0.158 s/it.) at 14.763 Gflops/sec

Total CC3 energy: -130.204169264859956

             _
Formation of H took 0.123 seconds at 17.452 Gflops/sec

Searching for 2 roots in irrep 1

EOMEE-CCSD guess vector:

   A    I                  
-------------------------- 
   9    8  1.0000000000000 

Beginning iterative solution of EOMEE-CC3 equations:

It.  Correlation Energy R1 Residual R2 Residual CPU Time (s) Walltime (s)
-------------------------------------------------------------------------
  1   0.374180492981350 2.95673e-02 4.34291e-02        2.911        0.146
  2   0.281145341164691 7.45186e-02 2.38687e-02        2.803        0.141
  3   0.241721957668701 1.80406e-02 6.23658e-03        2.859        0.143
  4   0.231519387900789 2.91437e-02 3.57016e-03        2.782        0.139
  5   0.226411720953598 4.86611e-03 2.72435e-03        2.906        0.146
  6   0.225199659024289 2.08802e-03 7.45069e-04        3.198        0.160
  7   0.225095042188688 1.47248e-03 7.96732e-04        3.358        0.168
  8   0.225016147187085 7.35953e-04 8.37336e-04        3.371        0.169
  9   0.224967846233123 5.88443e-04 9.06590e-04        3.573        0.179
Locking on root: 0.224989642130373
 10   0.224989642130373 3.02277e-04 9.85274e-04        3.772        0.189
 11   0.224951361560304 6.76416e-04 1.25940e-03        4.001        0.201
 12   0.224744188336515 9.04530e-03 5.76044e-03        4.283        0.215
 13   0.225057689030240 1.39859e-03 6.83563e-04        4.535        0.227
 14   0.225047477472426 6.88452e-04 1.38330e-04        4.899        0.246
 15   0.225013039933626 2.23150e-04 8.33073e-05        5.140        0.258
 16   0.225002458523667 1.67916e-04 3.93685e-05        5.633        0.282
 17   0.225009532640437 7.72280e-05 1.57982e-05        6.196        0.311
 18   0.225006280775537 2.82319e-05 1.14258e-05        6.352        0.318
 19   0.225007131932100 1.34562e-05 4.14170e-06        6.632        0.332
Compacting subspace
 20   0.225007748098311 6.73156e-06 2.44715e-06        9.659        0.484
 21   0.225007240770885 4.05538e-06 1.58788e-06        4.020        0.201
 22   0.225007369868816 1.93820e-06 9.26242e-07        4.291        0.215
 23   0.225007468615192 8.86948e-07 4.31092e-07        4.570        0.229
 24   0.225007375356632 3.09536e-07 2.28780e-07        4.861        0.244
 25   0.225007384076086 9.77472e-08 1.39393e-07        5.297        0.266
 26   0.225007391259933 8.53244e-08 7.54997e-08        5.545        0.278

EOMEE-CC3 iterations converged in 26 cycles and 5.888 seconds (0.226 s/it.) at 17.340 Gflops/sec

EOMEE-CC3 excitation energy:   0.225007391259936 (  6.122762391407933 eV)
Total EOMEE-CC3 energy:      -129.979161873600020

Converged root:

   A    I                     A    I                     A    I                  
-------------------------- -------------------------- -------------------------- 
   9    8 -0.5876190794047   18    8 -0.0700049627411   23    8  0.0182665130692 
  14    8  0.2525183195130   22    8  0.0549256943649   10    7  0.0162615437527 
  12    8 -0.1168766153569   20    8 -0.0330637550592   11    6  0.0142018995331 
  11    8  0.0969022258194   21    8 -0.0271162349108   11    5 -0.0141510777721 
  15    8  0.0758391523112    9    5  0.0245868925840    9    6 -0.0123879521355 

   A    B    I    J                     A    B    I    J                  
------------------------------------ ------------------------------------ 
  18    9    8    8 -0.0534137540646   10    9    7    8 -0.0357458947978 
   9   18    8    8 -0.0534137540646    9   10    8    7 -0.0357458947978 
  10    9    7    6 -0.0465181614858   12    9    8    8 -0.0329754220537 
   9   10    6    7 -0.0465181614858    9   12    8    8 -0.0329754220537 
  10    9    7    5  0.0413811973942   18   14    8    8  0.0293440107714 
   9   10    5    7  0.0413811973942   14   18    8    8  0.0293440107714 
  16    9    8    8  0.0404332248964    9    9    8    8 -0.0275575722621 
   9   16    8    8  0.0404332248964 

EOMEE-CCSD guess vector:

   A    I                  
-------------------------- 
  11    8  1.0000000000000 

Beginning iterative solution of EOMEE-CC3 equations:

It.  Correlation Energy R1 Residual R2 Residual CPU Time (s) Walltime (s)
-------------------------------------------------------------------------
  1   0.429355718465534 1.02428e-01 3.78196e-02        2.632        0.132
  2   0.300441664187411 6.05552e-02 7.98788e-03        2.693        0.135
  3   0.291629914252259 2.00643e-02 2.37068e-03        2.782        0.139
  4   0.288814234739224 8.37857e-03 1.38781e-03        3.046        0.153
  5   0.287346929872554 2.21969e-03 1.16139e-03        3.153        0.158
  6   0.287111451017138 1.45832e-03 1.52431e-03        3.181        0.159
  7   0.287147008929838 7.94254e-04 1.99633e-03        3.370        0.169
  8   0.286962365993080 8.98377e-04 3.06879e-03        3.551        0.178
  9   0.274066043790211 4.56366e-02 6.08614e-02        3.852        0.193
 10   0.210339126355017 1.88249e-02 1.17203e-02        3.982        0.200
 11   0.198468530425972 1.30056e-02 2.23388e-03        4.286        0.215
 12   0.193696420931129 7.09115e-03 1.05055e-03        4.562        0.229
 13   0.192867302544199 2.24013e-03 4.44435e-04        4.876        0.244
 14   0.192974492235416 1.26817e-03 2.34756e-04        5.148        0.258
 15   0.192774987185985 5.29608e-04 1.54910e-04        5.802        0.291
 16   0.192807777103580 1.38048e-04 8.33041e-05        6.049        0.303
Locking on root: 0.192813201663850
 17   0.192813201663850 7.09926e-05 3.92193e-05        6.277        0.315
 18   0.192803431390988 3.95537e-05 2.04251e-05        6.683        0.335
 19   0.192808287410955 1.30698e-05 8.47253e-06        7.169        0.359
Compacting subspace
 20   0.192807148103784 1.80022e-04 5.18173e-06       10.439        0.523
 21   0.192807182510249 8.79816e-06 4.01784e-06        4.301        0.216
 22   0.192806952725598 2.18872e-06 2.12641e-06        4.668        0.234
 23   0.192807066572588 1.12042e-06 1.06326e-06        4.884        0.245
 24   0.192807066458154 4.63651e-07 5.33465e-07        5.249        0.263
 25   0.192807046237596 1.78326e-07 2.12232e-07        5.561        0.279
 26   0.192807055894322 9.27040e-08 7.62763e-08        5.978        0.300

EOMEE-CC3 iterations converged in 26 cycles and 6.225 seconds (0.239 s/it.) at 17.004 Gflops/sec

EOMEE-CC3 excitation energy:   0.192807055894320 (  5.246546720165584 eV)
Total EOMEE-CC3 energy:      -130.011362208965636

Converged root:

   A    I                     A    I                     A    I                  
-------------------------- -------------------------- -------------------------- 
  12    8 -0.0157871615796   22    8 -0.0091739698863   46    8 -0.0043129176878 
  14    8 -0.0132741110536   24    8  0.0088556576277   34    8  0.0037606272016 
  23    8  0.0112765068503   20    8 -0.0058406462353   44    8  0.0037368911526 
   9    8  0.0105632251694   18    8 -0.0054171087944   15    8 -0.0035073430456 
  16    8  0.0091863526907   11    8  0.0049149283353   21    8  0.0034978082492 

   A    B    I    J                     A    B    I    J                  
------------------------------------ ------------------------------------ 
  10   10    8    8  0.8636844077697   10   10    5    6  0.0770877231328 
  13   10    8    8  0.2196322977711   19   10    8    8  0.0518971456600 
  10   13    8    8  0.2196322977711   10   19    8    8  0.0518971456600 
  17   10    8    8  0.1841972331888   35   10    8    8  0.0484582878090 
  10   17    8    8  0.1841972331888   10   35    8    8  0.0484582878090 
  10   10    6    6 -0.1329501823614   17   13    8    8  0.0398269698463 
  10   10    5    5 -0.0885009329266   13   17    8    8  0.0398269698463 
  10   10    6    5  0.0770877231328 

Searching for 1 roots in irrep 2

EOMEE-CCSD guess vector:

   A    I                  
-------------------------- 
  10    8  1.0000000000000 

Beginning iterative solution of EOMEE-CC3 equations:

It.  Correlation Energy R1 Residual R2 Residual CPU Time (s) Walltime (s)
-------------------------------------------------------------------------
  1   0.239840961701142 4.20599e-02 5.69903e-02        2.627        0.133
  2   0.144950580968827 8.09592e-02 2.66441e-02        2.635        0.132
  3   0.073754036007446 8.49472e-03 6.11985e-03        2.661        0.133
  4   0.067843343899735 1.20002e-02 2.55564e-03        2.768        0.139
  5   0.066330584314030 3.17688e-03 2.19016e-03        2.901        0.145
  6   0.064946845214807 1.45419e-03 1.59462e-03        3.060        0.153
  7   0.065530326198915 8.57160e-04 7.32000e-04        3.254        0.163
  8   0.065282539513469 2.11783e-04 2.47614e-04        3.464        0.174
Locking on root: 0.065276736522215
  9   0.065276736522215 2.03018e-04 5.87620e-05        3.721        0.187
 10   0.065318569952930 1.72526e-05 3.52977e-05        3.977        0.199
 11   0.065302312542050 1.30999e-05 1.71139e-05        4.274        0.214
 12   0.065306702633503 6.46139e-06 6.96180e-06        4.590        0.230
 13   0.065306879862456 1.78260e-06 2.23537e-06        5.044        0.253
 14   0.065306497196511 1.06839e-06 1.09561e-06        5.416        0.271
 15   0.065306655595570 2.29756e-07 5.22311e-07        5.665        0.284
 16   0.065306667264665 1.70714e-07 1.90579e-07        6.078        0.305
 17   0.065306644092883 6.52300e-08 5.47703e-08        6.629        0.332

EOMEE-CC3 iterations converged in 17 cycles and 3.448 seconds (0.203 s/it.) at 16.514 Gflops/sec

EOMEE-CC3 excitation energy:   0.065306644092885 (  1.777084130978848 eV)
Total EOMEE-CC3 energy:      -130.138862620767071

Converged root:

   A    I                     A    I                     A    I                  
-------------------------- -------------------------- -------------------------- 
  10    8 -0.6324481175226   19    8 -0.0417634875733   13    6 -0.0160495538812 
  13    8 -0.1795413390941   35    8 -0.0361967475426   31    8  0.0157180583373 
  17    8 -0.1368951713271   25    8 -0.0283280346409   17    6 -0.0131954373485 
  10    6 -0.0495801855153   38    8 -0.0174844822278   17    5  0.0131371224288 
  10    5  0.0487772034651   13    5  0.0160571923919   26    5  0.0122560638468 

   A    B    I    J                     A    B    I    J                  
------------------------------------ ------------------------------------ 
  10   10    7    6 -0.0731864749134   17   10    7    6 -0.0233221128096 
  10   10    6    7 -0.0731864749134   10   17    6    7 -0.0233221128096 
  10   10    7    5  0.0625412329175   10   13    6    7 -0.0229079116080 
  10   10    5    7  0.0625412329175   13   10    7    6 -0.0229079116080 
  10   10    7    8 -0.0450614461017   13   10    6    7 -0.0217700535497 
  10   10    8    7 -0.0450614461017   10   13    7    6 -0.0217700535497 
  10   13    7    8 -0.0245068670663   17   10    7    5  0.0210876854680 
  13   10    8    7 -0.0245068670663 

 @CHECKOUT-I, Total execution time (CPU/WALL):      357.26/      18.18 seconds.
--executable xncc finished with status     0 in       18.84 seconds (walltime).
  The final electronic energy is      -130.138862620767071 a.u. 
  This computation required                           26.15 seconds (walltime).
