 --invoking executable--
/home/CEISAM/blondel-a/soft/cfour2.1/cfour2.1-serial-mkl/bin/xjoda


   *************************************************************************
         <<<     CCCCCC     CCCCCC   |||     CCCCCC     CCCCCC   >>>
       <<<      CCC        CCC       |||    CCC        CCC         >>>
      <<<      CCC        CCC        |||   CCC        CCC            >>>
    <<<        CCC        CCC        |||   CCC        CCC              >>>
      <<<      CCC        CCC        |||   CCC        CCC            >>>
       <<<      CCC        CCC       |||    CCC        CCC         >>>
         <<<     CCCCCC     CCCCCC   |||     CCCCCC     CCCCCC   >>>
   *************************************************************************

     ****************************************************************
     * CFOUR Coupled-Cluster techniques for Computational Chemistry *
     ****************************************************************
 

   Department of Chemistry                Institut fuer Physikalische Chemie
   University of Florida                  Universitaet Mainz
   Gainesville, FL 32611, USA             D-55099 Mainz, Germany

   Department of Chemistry                Fakultaet fuer Chemie und Biowiss.
   Johns Hopkins University               Karlsruher Institut fuer Technologie
   Baltimore, MD 21218, USA               D-76131 Karlsruhe, Germany

   Department of Chemistry                Department of Physical Chemistry
   Southern Methodist University          Eotvos Lorand University
   Dallas, TX 75275, USA                  H-1053 Budapest, Hungary

 
                       Version 2.1
 
                     cribbar053                                        
                     Tue Mar 16 16:45:50 CET 2021                      
                     integer*8 version is running
 
********************************************************************************
*                          Input from ZMAT file                                *
********************************************************************************
Ketene -GS                                                                      
N     0.0000000000            0.0000000000            1.0400863228              
N     0.0000000000            0.0000000000           -1.0400863228              
                                                                                
*CFOUR(COORD=CARTESIAN,UNITS=BOHR                                               
       MEMORY=250,MEM_UNIT=GB,CC_PROG=NCC                                       
       FROZEN_CORE=1                                                            
       CALC=CC3,BASIS=AUG-PVTZ                                                  
       SCF_CONV=8,CC_CONV=7,ESTATE_CONV=5,ESTATE_MAXCYC=120                     
       EXCITE=EOMEE,ESTATE_SYM=1/3/0/0/2/0/1/2)                                 
                                                                                
********************************************************************************
    -------------------------------------------------------------------
                    CFOUR Control Parameters 
    -------------------------------------------------------------------
        External           Internal           Value            Units
          Name               Name
    -------------------------------------------------------------------
       ABCDTYPE             IABCDT         STANDARD    [  0]    ***   
       ANHARMONIC           IANHAR         OFF         [  0]    ***   
       ANH_ALGORIT          IANALG         STANDARD    [  0]    ***   
       ANH_DERIVAT          IANDER         SECOND      [  1]    ***   
       ANH_MODE             ANHMOD         VIBRATION   [  0]    ***   
       ANH_STEPSIZ          ICUBST             50000          x 10-6  
       ANH_SYMMETR          IANHSM         ABELIAN     [  0]    ***   
       AO_LADDERS           IAOLAD         SINGLEPASS  [  1]    ***   
       AV_SCF               IAVSCF         OFF         [  0]    ***   
       BASIS                IBASIS         AUG-PVTZ    [ 34]    ***   
       BOTHVECTORS          BOTHVC         OFF         [  0]    ***   
       BOX_POTENT           IPIAB          OFF         [  0]    ***   
       BREIT                IBREIT         OFF         [  0]    ***   
       BRUCK_CONV           IBRTOL          10D-  4             ***   
       BRUECKNER            IBRKNR         OFF         [  0]    ***   
       BUFFERSIZE           IBUFFS              4096            ***   
       CACHE_RECS           ICHREC             10               ***   
       CALCLEVEL            ICLLVL         CC3         [ 32]    ***   
       CCORBOPT             ICCORB         OFF         [  0]  x 0.01  
       CC_CONV              ICCCNV          10D-  7             ***   
       CC_EXPORDER          ICCEOR              5               ***   
       CC_EXTRAPOL          ICCEXT         DIIS        [  1]    ***   
       CC_GUESS             ICCGES         MP2         [  0]    ***   
       CC_MAXCYC            ICCCYC            100              cycles 
       CC_PROGRAM           ICCPRO         NCC         [  5]    ***   
       CHARGE               ICHRGE              0               ***   
       CHOLESKY             ICHOLE         OFF         [  0]    ***   
       CIS_CONV             ICISTL              5               ***   
       COMM_SIZE            IPSIZE            ***               ***   
       CONSTANT             ICONST         OLD         [  1]    ***   
       CONTINUUM            ICONTU         NONE        [  0]    ***   
       CONTRACTION          ICNTYP         GENERAL     [  1]    ***   
       COORDINATES          ICOORD         CARTESIAN   [  1]    ***   
       CPHF_CONVER          ICPHFT          10D- 16             ***   
       CPHF_MAXCYC          ICPHFC             64              cycles 
       CUBIC                ICUBIC         OFF         [  0]    ***   
       CURVILINEAR          ICURVY         OFF         [  0]    ***   
       DBOC                 IDBOC          OFF         [  0]    ***   
       DCT                  IDCT           OFF         [  0]    ***   
       DERIV_LEV            IDRLVL         ZERO        [  0]    ***   
       DEVMEM_SIZE          IDVMEM         *********           MByte  
       DIAG_MRCC            IEOMST          10D-  0             ***   
       DIFF_TYPE            IDIFTY         RELAXED     [  0]    ***   
       DIRECT               IDIRCT         OFF         [  0]    ***   
       DROPMO               IDRPMO      NONE         
       ECP                  IECP           OFF         [  0]    ***   
       EIGENVECTOR          IVEC                1               ***   
       EL_ANHARM            IELANH         OFF         [  0]    ***   
       EOMFOLLOW            IEOMSR         ENERGY      [  0]    ***   
       EOMIP                IEOMIP         OFF         [  0]    ***   
       EOMLEVEL             HBARFM         SAME        [  0]    ***   
       EOM_MRCC             IMRCCE         NEW         [  1]    ***   
       EOM_NONIT            EOMNON         OFF         [  0]    ***   
       EOM_NSING            IEOMSI          10D-  0             ***   
       EOM_NSTATES          IMRCCD         DAVIDSON    [  0]    ***   
       EOM_NTRIP            IEOMTR          10D-  0             ***   
       EOM_ORDER            IEXORD         ENERGY      [  0]    ***   
       EOM_PROPSTA          IEOMST              0               ***   
       ESTATE_CONV          IEXTOL          10D-  5             ***   
       ESTATE_DIAG          IEXDIG         ITERATIVE   [  0]    ***   
       ESTATE_LOCK          IESLOC         ON          [  1]    ***   
       ESTATE_MAXC          IEXMXC            120               ***   
       ESTATE_PROP          IEXPRP         OFF         [  0]    ***   
       ESTATE_SYM           IEXSYM   1,  3,  0,  0,  2,  0,  1,  2,
       EVAL_HESS            IRECAL              0            # of cyc.
       EXCITATION           IEXCIT              0               ***   
       EXCITE               IEXCIT         EOMEE       [  3]    ***   
       EXTERN_POT           IEXPOT         OFF         [  0]    ***   
       FCGRADNEW            IFCGNW         OFF         [  0]    ***   
       FC_FIELD             IFINFC              0             x 10-6  
       FD_CALTYPE           IFDCAL         GRADONLY    [  0]    ***   
       FD_PROJECT           IFDPRJ         OFF         [  1]    ***   
       FD_STEPSIZE          IDISFD              0            10-4 bohr
       FD_USEGROUP          IFDGRP         FULL        [  0]    ***   
       FILE_RECSIZ          IFLREC              4096           words  
       FINITE_PERT          IFIPER              0             x 10-6  
       FIXGEOM              IFIXGM         OFF         [  0]    ***   
       FOCK                 IFOCK          AO          [  1]    ***   
       FREQ_ALGORI          IVIALG         STANDARD    [  0]    ***   
       FROZEN_CORE          IFROCO         ON          [  1]    ***   
       GAMMA_ABCD           IGABCD         STORE       [  0]    ***   
       GAMMA_ABCI           IGABCI         STORE       [  0]    ***   
       GENBAS_1             IGNBS1              0               ***   
       GENBAS_2             IGNBS2              0               ***   
       GENBAS_3             IGNBS3              0               ***   
       GENBAS_4             IGNBS4              0               ***   
       GEO_CONV             ICONTL              5              H/bohr 
       GEO_MAXCYC           IOPTCY             50               ***   
       GEO_MAXSTEP          IMXSTP            300            millibohr
       GEO_METHOD           INR            SINGLE_POINT[  5]    ***   
       GIAO                 IGIAO          OFF         [  1]    ***   
       GIMIC                IGIMIC         OFF         [  0]    ***   
       GRID                 IGRID          OFF         [  0]    ***   
       GRID_ALGO            IGALGO         SERIAL      [  0]    ***   
       GUESS                IGUESS         MOREAD      [  0]    ***   
       HBAR                 IHBAR          ON          [  1]    ***   
       HESS_TYPE            IHESTP         SCF         [  0]    ***   
       HF2_FILE             IHF2Fl         USE         [  1]    ***   
       HFSTABILITY          ISTABL         OFF         [  0]    ***   
       INCORE               INCORE         OFF         [  0]    ***   
       INPUT_MRCC           IMRCC          ON          [  1]    ***   
       INTEGRALS            INTTYP         VMOL        [  1]    ***   
       JODA_PRINT           IJPRNT              0               ***   
       KEYWORD_OUT          IDMPKW         NO          [  0]    ***   
       LINDEP_TOL           ILINDP              8               ***   
       LINEQ_CONV           IZTACN          10D-  7           cycles  
       LINEQ_EXPOR          ILMAXD              5               ***   
       LINEQ_MAXCY          ILMAXC            100               ***   
       LINEQ_TYPE           ILTYPE         DIIS        [  1]    ***   
       LOCK_ORBOCC          ILOCOC         OFF         [  0]    ***   
       MEMORY_SIZE          IMEMSZ         *********           words  
       MEM_UNIT             IMEMU          GB          [  3]    ***   
       MRCC                 IMRCCC         OFF         [  0]    ***   
       MULTIPLICTY          IMULTP              1               ***   
       NACOUPLING           IVCOUP         OFF         [  0]    ***   
       NEGEVAL              IDIE           ABORT       [  0]    ***   
       NEWNORM              INEWNO         OFF         [  0]    ***   
       NON-HF               INONHF         OFF         [  0]    ***   
       NTOP_TAMP            ITOPT2             15               ***   
       NUC_MODEL            INUCMO         POINT       [  0]    ***   
       OCCUPATION           IOCCU   ESTIMATED BY SCF 
       OPEN-SHELL           IOPEN          SPIN-ORBITAL[  0]    ***   
       OPTVIB               IOPTVB         OFF         [  0]    ***   
       ORBITALS             IORBTP         STANDARD    [  0]    ***   
       PARALLEL             IPARAL         ON          [  1]    ***   
       PARA_INT             IPINTS         ON          [  1]    ***   
       PARA_PRINT           IPPRIN              0               ***   
       PERT_ORB             IPTORB         STANDARD    [  0]    ***   
       POINTS               IGRDFD              0               ***   
       PRINT                IPRNT               0               ***   
       PROPS                IPROPS         OFF         [  0]    ***   
       PROP_INTEGR          IINTYP         INTERNAL    [  0]    ***   
       PSI                  IPSI           OFF         [  0]    ***   
       QC_ALG               IQCALG         FLM         [  0]    ***   
       QC_LINALG            IQCLIN         TRIDIAG     [  2]    ***   
       QC_MAXCYC            IQCMAX          10D-100           cycles  
       QC_MAXSCFCY          IQCMSC          10D- 15           cycles  
       QC_RTRUST            IQCRTR          10D-  0           x 10-3  
       QC_SKIPSCF           IQCSKI         OFF         [  0]    ***   
       QC_START             IQCSTA          10D-  1             ***   
       QRHFGUESS            IQGUES         OFF         [  0]    ***   
       QUARTIC              IQUART         OFF         [  0]    ***   
       RAMAN_INT            IRAMIN         OFF         [  0]    ***   
       RAMAN_ORB            IRAMRE         UNRELAXED   [  0]    ***   
       RDO                  IRDOFM         OFF         [  0]    ***   
       REDUCE_REPR          REDREP         Ir          [  0]    ***   
       REFERENCE            IREFNC         RHF         [  0]    ***   
       RELATIVIST           IRELAT         OFF         [  0]    ***   
       RELAX_DENS           IRDENS         OFF         [  0]    ***   
       RESET_FLAGS          IRESET         OFF         [  0]    ***   
       RESTART_CC           ICCRES         OFF         [  0]    ***   
       ROT_EVEC             ROTVEC              0               ***   
       SAVE_INTS            ISVINT         OFF         [  0]    ***   
       SCALE_ON             ISTCRT              0               ***   
       SCF_CONV             ISCFCV          10D-  8             ***   
       SCF_DAMPING          IDAMP               0             x 10-3  
       SCF_EXPORDE          IRPPOR              6               ***   
       SCF_EXPSTAR          IRPPLS              8               ***   
       SCF_EXTRAPO          IRPP           ON          [  1]    ***   
       SCF_MAXCYC           ISCFCY            150              cycles 
       SCF_NOSTOP           ISCFST         OFF         [  0]    ***   
       SCF_PRINT            ISCFPR              0               ***   
       SCF_PROG             ISCFPR         SCF         [  0]    ***   
       SD_FIELD             IFINSD              0             x 10-6  
       SOPERT               IPERSO         OFF         [  0]    ***   
       SPHERICAL            IDFGHI         ON          [  1]    ***   
       SPINORBIT            ISOCAL         OFF         [  0]    ***   
       SPINROTATIO          ISRCON         OFF         [  0]    ***   
       SPIN_FLIP            ISPFLP         OFF         [  0]    ***   
       SPIN_ORBIT           ISPORB         OFF         [  0]    ***   
       SPIN_SCAL            ISCSMP         OFF         [  0]    ***   
       STEEPSCALE           ISTPSC              1000          x 10-3  
       SUBGROUP             ISUBGP         DEFAULT     [  0]    ***   
       SUBGRPAXIS           ISBXYZ         X           [  0]    ***   
       SYMMETRY             ISYM           ON          [  0]    ***   
       SYM_CHECK            ISYMCK         OVERRIDE    [  1]    ***   
       T3_EXTRAPOL          IT3EXT         ON          [  1]    ***   
       T4_EXTRAPOL          IT4EXP         OFF         [  0]    ***   
       TAMP_SUM             IEVERY              5               ***   
       TESTSUITE            ITESTS         OFF         [  0]    ***   
       THERMOCH             ITHERM         OFF         [  0]    ***   
       TOL_CHOLESK          ITOLCH          10D-  4             ***   
       TRANGRAD             IRESRM         OFF         [  0]    ***   
       TRANS_INV            ITRAIN         USE         [  0]    ***   
       TREAT_PERT           ITREAT         SIMULTANEOUS[  0]    ***   
       TRIP_ALGORI          ITRALG         NORMAL      [  0]    ***   
       UIJ_THRESHO          IUIJTH              1               ***   
       UNITS                IUNITS         BOHR        [  1]    ***   
       UNOS                 IUNOS          OFF         [  0]    ***   
       UPDATE_HESS          IHUPDT         ON          [  1]    ***   
       VIBPHASE             ISETPH         STANDARD    [  0]    ***   
       VIBRATION            IVIB           NO          [  0]    ***   
       VIB_ALGORIT          IGEALG         STANDARD    [  0]    ***   
       VNATORB              IVNORB         OFF         [  0]    ***   
       VTRAN                IVTRAN         FULL/PARTIAL[  0]    ***   
       XFIELD               IXEFLD              0             x 10-6  
       XFORM_TOL            IXFTOL          10D- 11             ***   
       YFIELD               IYEFLD              0             x 10-6  
       ZFIELD               IZEFLD              0             x 10-6  
       ZSCALE_EXP           IZEXPS         OFF         [  0]    ***   
    -------------------------------------------------------------------
  @GETXYZ-I,     2 atoms read from ZMAT.
   Rotational constants (in cm-1): 
          1.9870203770             1.9870203770
   Rotational constants (in MHz): 
      59569.3806383154         59569.3806383154
********************************************************************************
   The full molecular point group is DXh .
   The largest Abelian subgroup of the full molecular point group is D2h .
   The computational point group is D2h .
********************************************************************************


 ----------------------------------------------------------------
         Coordinates used in calculation (QCOMP) 
 ----------------------------------------------------------------
 Z-matrix   Atomic            Coordinates (in bohr)
  Symbol    Number           X              Y              Z
 ----------------------------------------------------------------
     N         7         0.00000000     0.00000000    -1.04008632
     N         7        -0.00000000     0.00000000     1.04008632
 ----------------------------------------------------------------
 
   Interatomic distance matrix (Angstroms) 
 
                 N             N    
                [ 1]        [ 2]
  N    [ 1]     0.00000
  N    [ 2]     1.10078     0.00000
 rotcon2
   Rotational constants (in cm-1): 
          1.9870203770             0.0000000000
   Rotational constants (in MHz): 
      59569.3806383154             0.0000000000
  There are   2 frozen-core orbitals.
  There are   92 basis functions.
 @GEOPT-W, Archive file not created for single-point calculation.
 @CHECKOUT-I, Total execution time (CPU/WALL):        0.17/       2.33 seconds.
--executable xjoda finished with status     0 in        2.97 seconds (walltime).
 --invoking executable--
/home/CEISAM/blondel-a/soft/cfour2.1/cfour2.1-serial-mkl/bin/xvmol
 SERIAL VERSION OF MOLECULE STARTED
********************************************************************************
                    INPUT FROM MOL FILE
********************************************************************************
INTGRL        1    0    1    0    0    0    0    0    0                         
         *** CFOUR Program System (Release V0.1) ***                            
Ketene -GS                                                                      
    1    3 X  Y   Z   0.10E-08              0    0                              
   9999.00      3.00                                                            
          7.00000000    1    4    1    1    1    1                              
N #1   0.000000000000000   0.000000000000000  -1.040086322800000                
   11    5                                                                      
   11420.0000000000       5.230000000000000E-004 -1.150000000000000E-004        
  0.000000000000000E+000  0.000000000000000E+000  0.000000000000000E+000        
   1712.00000000000       4.045000000000000E-003 -8.950000000000000E-004        
  0.000000000000000E+000  0.000000000000000E+000  0.000000000000000E+000        
   389.300000000000       2.077500000000000E-002 -4.624000000000000E-003        
  0.000000000000000E+000  0.000000000000000E+000  0.000000000000000E+000        
   110.000000000000       8.072699999999999E-002 -1.852800000000000E-002        
  0.000000000000000E+000  0.000000000000000E+000  0.000000000000000E+000        
   35.5700000000000       0.233074000000000      -5.733900000000000E-002        
  0.000000000000000E+000  0.000000000000000E+000  0.000000000000000E+000        
   12.5400000000000       0.433501000000000      -0.132076000000000             
  0.000000000000000E+000  0.000000000000000E+000  0.000000000000000E+000        
   4.64400000000000       0.347472000000000      -0.172510000000000             
  0.000000000000000E+000  0.000000000000000E+000  0.000000000000000E+000        
   1.29300000000000       4.126200000000000E-002  0.151814000000000             
   1.00000000000000       0.000000000000000E+000  0.000000000000000E+000        
  0.511800000000000      -8.508000000000000E-003  0.599944000000000             
  0.000000000000000E+000  0.000000000000000E+000  0.000000000000000E+000        
  0.178700000000000       2.384000000000000E-003  0.387462000000000             
  0.000000000000000E+000   1.00000000000000       0.000000000000000E+000        
  5.760000000000000E-002  0.000000000000000E+000  0.000000000000000E+000        
  0.000000000000000E+000  0.000000000000000E+000   1.00000000000000             
    6    4                                                                      
   26.6300000000000       1.467000000000000E-002  0.000000000000000E+000        
  0.000000000000000E+000  0.000000000000000E+000                                
   5.94800000000000       9.176400000000000E-002  0.000000000000000E+000        
  0.000000000000000E+000  0.000000000000000E+000                                
   1.74200000000000       0.298683000000000       0.000000000000000E+000        
  0.000000000000000E+000  0.000000000000000E+000                                
  0.555000000000000       0.498487000000000        1.00000000000000             
  0.000000000000000E+000  0.000000000000000E+000                                
  0.172500000000000       0.337023000000000       0.000000000000000E+000        
   1.00000000000000       0.000000000000000E+000                                
  4.910000000000000E-002  0.000000000000000E+000  0.000000000000000E+000        
  0.000000000000000E+000   1.00000000000000                                     
    3    3                                                                      
   1.65400000000000        1.00000000000000       0.000000000000000E+000        
  0.000000000000000E+000                                                        
  0.469000000000000       0.000000000000000E+000   1.00000000000000             
  0.000000000000000E+000                                                        
  0.151000000000000       0.000000000000000E+000  0.000000000000000E+000        
   1.00000000000000                                                             
    2    2                                                                      
   1.09300000000000        1.00000000000000       0.000000000000000E+000        
  0.364000000000000       0.000000000000000E+000   1.00000000000000             
FINISH                                                                          
 
********************************************************************************
 ONE- AND TWO-ELECTRON INTEGRALS OVER SYMMETRY-ADAPTED AOS ARE CALCULATED.

  SPHERICAL HARMONICS ARE USED.
  
  INTEGRALS LESS THAN  0.10E-13 ARE NEGLECTED.

  NUCLEAR REPULSION ENERGY :   23.5557371181 A.U.
  @MOLECU-I, ONE ELECTRON INTEGRALS (CPU/WALL):        0.04/       0.38 SECONDS.
  @TWOEL-I,      28803 INTEGRALS OF SYMMETRY TYPE  I I I I
  @TWOEL-I,     247217 INTEGRALS OF SYMMETRY TYPE  I J I J
  @TWOEL-I,     146899 INTEGRALS OF SYMMETRY TYPE  I I J J
  @TWOEL-I,     548139 INTEGRALS OF SYMMETRY TYPE  I J K L
  @TWOEL-I, TOTAL NUMBER OF 2-E INTEGRALS     971058.
  @MOLECU-I, TWO ELECTRON INTEGRALS (CPU/WALL):       19.19/       1.02 SECONDS.
 @CHECKOUT-I, Total execution time (CPU/WALL):       19.29/       1.44 seconds.

Running with 20 threads/proc

--executable xvmol finished with status     0 in        2.11 seconds (walltime).
 --invoking executable--
/home/CEISAM/blondel-a/soft/cfour2.1/cfour2.1-serial-mkl/bin/xvmol2ja
 @GETMEM-I,  Allocated  238418 MB of main memory.
 @CHECKOUT-I, Total execution time (CPU/WALL):        0.35/       0.12 seconds.
--executable xvmol2ja finished with status     0 in        0.89 seconds (walltime).
 --invoking executable--
/home/CEISAM/blondel-a/soft/cfour2.1/cfour2.1-serial-mkl/bin/xvscf
  There are   92 functions in the AO basis.

  There are 8 irreducible representations.

       Irrep        # of functions
         1                 19
         2                 11
         3                 11
         4                  5
         5                 19
         6                 11
         7                 11
         8                  5


  Parameters for SCF calculation: 
        SCF reference function:  RHF  
  Maximum number of iterations:  150
     Full symmetry point group: DXh 
     Computational point group: D2h 
        Initial density matrix: MOREAD                 
     SCF convergence tolerance: 10**(- 8)
  DIIS convergence acceleration:  ON
          Latest start for DIIS:   8
                     DIIS order:   6

  Memory information:     419746 words required.
  Fock matrices are constructed from AO integral file.
 @GETMEM-I,  Allocated       3 MB of main memory.
  Initialization and symmetry analysis required      0.003 seconds.

  @INITGES-I, Occupancies from core Hamiltonian:

          Alpha population by irrep:   2    1    1    0    2    1    0    0
           Beta population by irrep:   2    1    1    0    2    1    0    0


 total no. of electrons in initial guess :  0.000000000000000E+000
  --------------------------------------------------------------------
  Iteration         Total Energy            Largest Density Difference
  --------------------------------------------------------------------
       0            23.555737118092217              0.0000000000D+00
   current occupation vector 
     2  1  1  0  2  1  0  0
     2  1  1  0  2  1  0  0
       1           -93.831406490084248              0.7564085796D+01
   current occupation vector 
     2  1  1  0  2  1  0  0
     2  1  1  0  2  1  0  0
       2           -91.053205285418954              0.1624077454D+03
   current occupation vector 
     2  1  1  0  2  0  1  0
     2  1  1  0  2  0  1  0
       3          -105.684780909395556              0.1624225939D+03
   current occupation vector 
     3  1  1  0  2  0  0  0
     3  1  1  0  2  0  0  0
       4          -107.720031811045203              0.2178008513D+01
   current occupation vector 
     3  1  1  0  2  0  0  0
     3  1  1  0  2  0  0  0
       5          -108.808278691625389              0.9127702947D+00
   current occupation vector 
     3  1  1  0  2  0  0  0
     3  1  1  0  2  0  0  0
       6          -108.969783679874894              0.3771498398D+00
   current occupation vector 
     3  1  1  0  2  0  0  0
     3  1  1  0  2  0  0  0
       7          -108.983919632553835              0.8931670336D-01
   current occupation vector 
     3  1  1  0  2  0  0  0
     3  1  1  0  2  0  0  0
       8          -108.984064907956480              0.1053600221D-01
   current occupation vector 
     3  1  1  0  2  0  0  0
     3  1  1  0  2  0  0  0
       9          -108.984066250769615              0.1073087993D-02
   current occupation vector 
     3  1  1  0  2  0  0  0
     3  1  1  0  2  0  0  0
      10          -108.984066270754795              0.8986090199D-04
   current occupation vector 
     3  1  1  0  2  0  0  0
     3  1  1  0  2  0  0  0
      11          -108.984066271359694              0.1543627675D-04
   current occupation vector 
     3  1  1  0  2  0  0  0
     3  1  1  0  2  0  0  0
      12          -108.984066271372996              0.2902679119D-05
   current occupation vector 
     3  1  1  0  2  0  0  0
     3  1  1  0  2  0  0  0
      13          -108.984066271372853              0.2977480926D-06
   current occupation vector 
     3  1  1  0  2  0  0  0
     3  1  1  0  2  0  0  0
      14          -108.984066271372626              0.4940780424D-07
   current occupation vector 
     3  1  1  0  2  0  0  0
     3  1  1  0  2  0  0  0

  SCF has converged.

 Density matrix saved to file den.dat
 total electron number:   14.0000000000000     
     E(SCF)=      -108.984066271372598              0.7758717890D-08


  Final occupancies:

     Alpha population by irrep:   3    1    1    0    2    0    0    0
      Beta population by irrep:   3    1    1    0    2    0    0    0


  Eigenvector printing suppressed.

 @PUTMOS-I, Writing converged MOs to NEWMOS. 
 @PUTMOS-I, Symmetry   1 Full Blocks  4 Partial Blocksize   3
 @PUTMOS-I, Symmetry   2 Full Blocks  2 Partial Blocksize   3
 @PUTMOS-I, Symmetry   3 Full Blocks  2 Partial Blocksize   3
 @PUTMOS-I, Symmetry   4 Full Blocks  1 Partial Blocksize   1
 @PUTMOS-I, Symmetry   5 Full Blocks  4 Partial Blocksize   3
 @PUTMOS-I, Symmetry   6 Full Blocks  2 Partial Blocksize   3
 @PUTMOS-I, Symmetry   7 Full Blocks  2 Partial Blocksize   3
 @PUTMOS-I, Symmetry   8 Full Blocks  1 Partial Blocksize   1
 @PUTFOCK-I, Writing converged Fock matrix to NEWFOCK. 
 @PUTFOCK-I, Symmetry   1 Full Blocks  4 Partial Blocksize   3
 @PUTFOCK-I, Symmetry   2 Full Blocks  2 Partial Blocksize   3
 @PUTFOCK-I, Symmetry   3 Full Blocks  2 Partial Blocksize   3
 @PUTFOCK-I, Symmetry   4 Full Blocks  1 Partial Blocksize   1
 @PUTFOCK-I, Symmetry   5 Full Blocks  4 Partial Blocksize   3
 @PUTFOCK-I, Symmetry   6 Full Blocks  2 Partial Blocksize   3
 @PUTFOCK-I, Symmetry   7 Full Blocks  2 Partial Blocksize   3
 @PUTFOCK-I, Symmetry   8 Full Blocks  1 Partial Blocksize   1


 
  ORBITAL EIGENVALUES (ALPHA)  (1H = 27.2113834 eV)

       MO #        E(hartree)               E(eV)           FULLSYM    COMPSYM
       ----   --------------------   --------------------   -------   ---------
    1     1         -15.6866725890        -426.8560620892    SGg+        Ag (1)
    2    47         -15.6831963064        -426.7614676306    SGu+       B1u (5)
    3     2          -1.4702741864         -40.0081945883    SGg+        Ag (1)
    4    48          -0.7807768676         -21.2460186928    SGu+       B1u (5)
    5     3          -0.6343548900         -17.2616741235    SGg+        Ag (1)
    6    20          -0.6132169205         -16.6864807324    PIu        B2u (2)
    7    31          -0.6132169204         -16.6864807275    PIu        B3u (3)
  +++++++++++++++++++++++++++++++++++++++++++++++++++++++++++++++++++++++++++++
    8    49           0.0827529119           2.2518212135    SGu+       B1u (5)
    9    66           0.1169450682           3.1822370869    PIg        B3g (6)
   10    77           0.1169450682           3.1822370871    PIg        B2g (7)
   11     4           0.1170023556           3.1837959565    SGg+        Ag (1)
   12    21           0.1253965746           3.4122142689    PIu        B2u (2)
   13    32           0.1253965747           3.4122142699    PIu        B3u (3)
   14     5           0.1602192783           4.3597882109    SGg+        Ag (1)
   15    67           0.2083555667           5.6696432091    PIg        B3g (6)
   16    78           0.2083555667           5.6696432101    PIg        B2g (7)
   17    50           0.2813957570           7.6571678319    SGu+       B1u (5)
   18    42           0.4133484835          11.2477840629    DEg        B1g (4)
   19     6           0.4133484835          11.2477840629    DEg         Ag (1)
   20     7           0.4790380236          13.0352873240    SGg+        Ag (1)
   21    51           0.5317444772          14.4695028394    SGu+       B1u (5)
   22    22           0.5691694416          15.4878878959    PIu        B2u (2)
   23    33           0.5691694417          15.4878878966    PIu        B3u (3)
   24    68           0.5785903209          15.7442430532    PIg        B3g (6)
   25    79           0.5785903209          15.7442430542    PIg        B2g (7)
   26    88           0.5820867507          15.8393857464    DEu         Au (8)
   27    52           0.5820867507          15.8393857464    DEu        B1u (5)
   28    23           0.7317637688          19.9123044705    PIu        B2u (2)
   29    34           0.7317637689          19.9123044729    PIu        B3u (3)
   30    53           0.7438080224          20.2400452744    SGu+       B1u (5)
   31     8           0.7601109484          20.6836704446    SGg+        Ag (1)
   32    69           1.0489899228          28.5444669716    PIg        B3g (6)
   33    80           1.0489899228          28.5444669731    PIg        B2g (7)
   34    54           1.0782127043          29.3396592824    SGu+       B1u (5)
   35     9           1.2199801921          33.1973487466    SGg+        Ag (1)
   36    43           1.3418358776          36.5132105245    DEg        B1g (4)
   37    10           1.3418358776          36.5132105245    DEg         Ag (1)
   38    24           1.3717110330          37.3261548320    PHu        B2u (2)
   39    35           1.3717110330          37.3261548320    PHu        B3u (3)
   40    25           1.4728873815          40.0793032442    PIu        B2u (2)
   41    36           1.4728873816          40.0793032448    PIu        B3u (3)
   42    89           1.5711414045          42.7529311341    DEu         Au (8)
   43    55           1.5711414045          42.7529311341    DEu        B1u (5)
   44    56           1.6023430658          43.6019715030    SGu+       B1u (5)
   45    11           1.6981533461          46.2091017733    SGg+        Ag (1)
   46    44           1.7022913117          46.3217015408    DEg        B1g (4)
   47    12           1.7022913117          46.3217015408    DEg         Ag (1)
   48    81           1.7194350515          46.7882064164    PHg        B2g (7)
   49    70           1.7194350515          46.7882064164    PHg        B3g (6)
   50    71           1.7239208324          46.9102707209    PIg        B3g (6)
   51    82           1.7239208324          46.9102707216    PIg        B2g (7)
   52    57           1.9924490603          54.2172952839    SGu+       B1u (5)
   53    26           2.1582007392          58.7276277693    PIu        B2u (2)
   54    37           2.1582007393          58.7276277700    PIu        B3u (3)
   55    90           2.3140542458          62.9686172899    DEu         Au (8)
   56    58           2.3140542458          62.9686172899    DEu        B1u (5)
   57    72           2.4349527558          66.2584329979    PIg        B3g (6)
   58    83           2.4349527558          66.2584329989    PIg        B2g (7)
   59    59           2.7553534850          74.9769800821    SGu+       B1u (5)
   60    13           2.7920765772          75.9762662252    SGg+        Ag (1)
   61    27           3.2901031511          89.5282582701    PIu        B2u (2)
   62    38           3.2901031511          89.5282582713    PIu        B3u (3)
   63    14           4.0148835000         109.2505342260    SGg+        Ag (1)
   64    73           4.2845935729         116.5897184247    PIg        B3g (6)
   65    84           4.2845935729         116.5897184250    PIg        B2g (7)
   66    45           4.3976472343         119.6660649508    DEg        B1g (4)
   67    15           4.3976472343         119.6660649508    DEg         Ag (1)
   68    60           4.5035663481         122.5482705661    SGu+       B1u (5)
   69    28           4.5258803344         123.1554650021    PIu        B2u (2)
   70    39           4.5258803344         123.1554650024    PIu        B3u (3)
   71    16           4.5517642689         123.8598026663    SGg+        Ag (1)
   72    40           4.6621780962         126.8643156545    PHu        B3u (3)
   73    29           4.6621780962         126.8643156545    PHu        B2u (2)
   74    85           5.0407884643         137.1668275414    PHg        B2g (7)
   75    74           5.0407884643         137.1668275414    PHg        B3g (6)
   76    17           5.0752797188         138.1053822912    DEg         Ag (1)
   77    46           5.0752797188         138.1053822912    DEg        B1g (4)
   78    61           5.1559722998         140.3011390486    DEu        B1u (5)
   79    91           5.1559722998         140.3011390486    DEu         Au (8)
   80    62           5.1876531303         141.1632182744    SGu+       B1u (5)
   81    75           5.4110313613         147.2416489605    PIg        B3g (6)
   82    86           5.4110313613         147.2416489608    PIg        B2g (7)
   83    41           5.5887665481         152.0780692734    PIu        B3u (3)
   84    30           5.5887665481         152.0780692735    PIu        B2u (2)
   85    92           5.7395267373         156.1804625826    DEu         Au (8)
   86    63           5.7395267373         156.1804625826    DEu        B1u (5)
   87    18           6.7191556019         182.8375192063    SGg+        Ag (1)
   88    64           6.7627469130         184.0236990875    SGu+       B1u (5)
   89    87           6.8658181207         186.8284092372    PIg        B2g (7)
   90    76           6.8658181207         186.8284092377    PIg        B3g (6)
   91    19          10.8862713935         296.2305046860    SGg+        Ag (1)
   92    65          19.1207264062         520.3014171256    SGu+       B1u (5)


  VSCF finished.

 @CHECKOUT-I, Total execution time (CPU/WALL):        5.84/       0.52 seconds.
--executable xvscf finished with status     0 in        1.54 seconds (walltime).
 --invoking executable--
/home/CEISAM/blondel-a/soft/cfour2.1/cfour2.1-serial-mkl/bin/xvtran
 @GETMEM-I,  Allocated  238418 MB of main memory.
  Full RHF integral transformation
  The following   2 MOs will be dropped:
    1  6
  There are  90 active molecular orbitals.
  Transformation of IIII integrals :
  1 pass through the AO integral file was required.
       28803 AO integrals were read.
       38496 MO integrals were written to HF2.
  Transformation of IIJJ integrals :
  1 pass through the AO integral file was required.
      146899 AO integrals were read.
      164070 MO integrals were written to HF2.
  Transformation of IJIJ integrals :
  1 pass through the AO integral file was required.
      247217 AO integrals were read.
      283516 MO integrals were written to HF2.
  Transformation of IJKL integrals :
  1 pass through the AO integral file was required.
      548139 AO integrals were read.
      582822 MO integrals were written to HF2.
  Summary of active molecular orbitals: 
------------------------------------------------------------------------
 
  Index      Eigenvalue    Symmetry    Index      Eigenvalue    Symmetry
------------------------------------------------------------------------
     1        -1.4702742        1        46         5.0752797        4
     2        -0.6343549        1        47         0.0827529        5
     3        -0.6132169        2        48         0.2813958        5
     4        -0.6132169        3        49         0.5317445        5
     5        -0.7807769        5        50         0.5820868        5
     6         0.1170024        1        51         0.7438080        5
     7         0.1602193        1        52         1.0782127        5
     8         0.4133485        1        53         1.5711414        5
     9         0.4790380        1        54         1.6023431        5
    10         0.7601109        1        55         1.9924491        5
    11         1.2199802        1        56         2.3140542        5
    12         1.3418359        1        57         2.7553535        5
    13         1.6981533        1        58         4.5035663        5
    14         1.7022913        1        59         5.1559723        5
    15         2.7920766        1        60         5.1876531        5
    16         4.0148835        1        61         5.7395267        5
    17         4.3976472        1        62         6.7627469        5
    18         4.5517643        1        63        19.1207264        5
    19         5.0752797        1        64         0.1169451        6
    20         6.7191556        1        65         0.2083556        6
    21        10.8862714        1        66         0.5785903        6
    22         0.1253966        2        67         1.0489899        6
    23         0.5691694        2        68         1.7194351        6
    24         0.7317638        2        69         1.7239208        6
    25         1.3717110        2        70         2.4349528        6
    26         1.4728874        2        71         4.2845936        6
    27         2.1582007        2        72         5.0407885        6
    28         3.2901032        2        73         5.4110314        6
    29         4.5258803        2        74         6.8658181        6
    30         4.6621781        2        75         0.1169451        7
    31         5.5887665        2        76         0.2083556        7
    32         0.1253966        3        77         0.5785903        7
    33         0.5691694        3        78         1.0489899        7
    34         0.7317638        3        79         1.7194351        7
    35         1.3717110        3        80         1.7239208        7
    36         1.4728874        3        81         2.4349528        7
    37         2.1582007        3        82         4.2845936        7
    38         3.2901032        3        83         5.0407885        7
    39         4.5258803        3        84         5.4110314        7
    40         4.6621781        3        85         6.8658181        7
    41         5.5887665        3        86         0.5820868        8
    42         0.4133485        4        87         1.5711414        8
    43         1.3418359        4        88         2.3140542        8
    44         1.7022913        4        89         5.1559723        8
    45         4.3976472        4        90         5.7395267        8
------------------------------------------------------------------------
  -1.47027418636470      -0.634354889999869      -0.613216920549835     
 -0.613216920366718      -0.780776867551544       0.117002355583849     
  0.160219278335591       0.413348483522689       0.479038023624053     
  0.760110948441070        1.21998019206355        1.34183587757133     
   1.69815334612243        1.70229131168627        2.79207657723301     
   4.01488350004201        4.39764723431060        4.55176426885801     
   5.07527971882667        6.71915560185192        10.8862713935376     
  0.125396574613906       0.569169441634772       0.731763768779166     
   1.37171103296486        1.47288738154410        2.15820073922833     
   3.29010315109902        4.52588033440762        4.66217809618892     
   5.58876654810304       0.125396574650431       0.569169441660974     
  0.731763768868292        1.37171103296487        1.47288738156543     
   2.15820073925249        3.29010315114189        4.52588033441792     
   4.66217809618891        5.58876654809703       0.413348483522683     
   1.34183587757132        1.70229131168626        4.39764723431057     
   5.07527971882669       8.275291191076765E-002  0.281395757038640     
  0.531744477179443       0.582086750739408       0.743808022431205     
   1.07821270426148        1.57114140452264        1.60234306584396     
   1.99244906026804        2.31405424576423        2.75535348497296     
   4.50356634812192        5.15597229976345        5.18765313028393     
   5.73952673727603        6.76274691302476        19.1207264062000     
  0.116945068175204       0.208355566703212       0.578590320888906     
   1.04898992278331        1.71943505145015        1.72392083237216     
   2.43495275576217        4.28459357287647        5.04078846433899     
   5.41103136125309        6.86581812072468       0.116945068184463     
  0.208355566739716       0.578590320922660        1.04898992283719     
   1.71943505145014        1.72392083239708        2.43495275579730     
   4.28459357288620        5.04078846433896        5.41103136126492     
   6.86581812070451       0.582086750739399        1.57114140452261     
   2.31405424576418        5.15597229976346        5.73952673727603     
 @CHECKOUT-I, Total execution time (CPU/WALL):        3.72/       0.38 seconds.
--executable xvtran finished with status     0 in        0.93 seconds (walltime).
 --invoking executable--
/home/CEISAM/blondel-a/soft/cfour2.1/cfour2.1-serial-mkl/bin/xintprc
 @GETMEM-I,  Allocated  238418 MB of main memory.
  @GMOIAA-I, Processing MO integrals for spin case AA.
  @GMOIAA-I, Generation of integral list completed.
                      TYPE                NUMBER
                      ----               --------
                      PPPP                848984
                      PPPH                199380
                      PPHH                 12102
                      PHPH                  7496
                      PHHH                   909
                      HHHH                    33

                     TOTAL               1068904

  @FORMT2-I, Second-order MP correlation energies:
            ------------------------------------------------
            E(SCF)                  =   -108.984066271373 a.u.
            E2(AA)                  =     -0.048531259367 a.u.
            E2(AB)                  =     -0.283255987176 a.u.
            E2(TOT)                 =     -0.380318505911 a.u.
            Total MP2 energy        =   -109.364384777283 a.u.
            ------------------------------------------------
   Largest T2 amplitudes for spin case AB:
       _       _                 _       _                 _       _
   i   j   a   b             i   j   a   b             i   j   a   b
-----------------------------------------------------------------------------
[  3   3  65  65]-0.04714 [  4   4  76  76]-0.04714 [  3   3  65  64]-0.04143
[  3   3  64  65]-0.04143 [  4   4  76  75]-0.04143 [  4   4  75  76]-0.04143
[  4   3  76  65]-0.03781 [  3   4  65  76]-0.03781 [  3   3  64  64]-0.03704
[  4   4  75  75]-0.03704 [  4   3  76  64]-0.03332 [  3   4  64  76]-0.03332
[  4   3  75  65]-0.03332 [  3   4  65  75]-0.03332 [  4   3  75  64]-0.02978
-----------------------------------------------------------------------------
   Norm of T2AB vector (    23779 symmetry allowed elements):  0.2984283458.
-----------------------------------------------------------------------------
 @CHECKOUT-I, Total execution time (CPU/WALL):        2.57/       0.38 seconds.
--executable xintprc finished with status     0 in        0.93 seconds (walltime).
  calling xncc 
 --invoking executable--
/home/CEISAM/blondel-a/soft/cfour2.1/cfour2.1-serial-mkl/bin/xncc
 @GETMEM-I,  Allocated       7 MB of main memory.

Running with 20 threads/proc

Following the lowest-energy eigenvector.
Using a partitioned Davidson procedure.
Using discrete restarting.
Using an orthogonal subspace.
Orthogonalizing against previous roots.
Using Modified Gram-Schmidt orthogonalization.

Using DIIS to accelerate the convergence of T1 and T2
Using immediate high-order contributions
Performing 3 CCSD sub-iterations
Damping factor for T3: 0.000000
Damping factor for T4: 0.000000

Transposes are coarse-threaded

Memory limit:                232.831 GiB
Minimum memory requirement:  100.632 MiB
Compromise memory amount:     26.995 MiB
Optimal memory requirement:  151.244 MiB

List              Location   Size        Cached Hunks Est. Disk I/O
----------------- ---------- ----------- ------ ----- -------------

           HR_DAV      470:1    6.005 MiB    Yes     -    24.525 GiB
                R        471    1.563 MiB    Yes     -   140.680 MiB
            R_DAV      470:0    6.005 MiB    Yes     -    44.887 GiB
           T_DIIS       70:0  931.562 KiB    Yes     -    16.375 MiB
           Z_DIIS       70:1  931.562 KiB    Yes     -    27.292 MiB
          <AI|bj>         18  185.773 KiB    Yes     -    27.578 MiB
          <Ab|Cd>        233   50.316 MiB    Yes     -    10.712 GiB
          <Ab|Ci>         30    2.998 MiB    Yes     -     8.230 GiB
          <Ab|Ij>         16  185.773 KiB    Yes     -   492.916 MiB
          <Ai|Bj>         25  185.773 KiB    Yes     -    25.399 MiB
          <Aj|bI>         21  185.773 KiB     No     -         0   B
          <Ij|Ka>         10   11.508 KiB    Yes     -    32.838 MiB
          <Ij|Kl>         13      872   B    Yes     -    67.273 KiB
           DD(AI)      448:8      552   B    Yes     -    60.461 KiB
        DD(Ab,Ij)        450  185.773 KiB    Yes     -    24.260 MiB
            F(EA)       92:0    8.102 KiB    Yes     -    14.391 MiB
            F(EM)       93:0      552   B    Yes     -   455.508 KiB
            F(MI)       91:0       56   B    Yes     -   102.758 KiB
           HR(AI)      490:2      552   B    Yes     -     4.309 MiB
        HR(Ab,Ij)        463  185.773 KiB    Yes     -     2.644 GiB
            Q(AI)      190:2      552   B    Yes     -    88.945 KiB
         Q(Ab,Ij)         50  185.773 KiB    Yes     -   100.688 MiB
            R(AI)      490:0      552   B    Yes     -     9.379 MiB
         R(Ab,Ij)        446  185.773 KiB    Yes     -     4.109 GiB
            T(AI)       90:0      552   B    Yes     -     1.298 MiB
         T(Ab,Ij)         46  185.773 KiB    Yes     -   812.577 MiB
         W(Mn,Ij)         53      872   B    Yes     -   218.852 KiB
        W~(Ab,Ej)        130    2.998 MiB    Yes     -     1.839 GiB
        W~(EM,bj)         56  185.773 KiB    Yes     -    83.857 MiB
        W~(Em,Bj)         58  185.773 KiB    Yes     -    80.550 MiB
        W~(Ij,Mb)        110   11.508 KiB    Yes     -     5.383 MiB
       W~~(Ab,Ef)         33   50.316 MiB    Yes     -     6.732 GiB
       W~~(Ab,Ej)        169    2.998 MiB    Yes     -    20.956 GiB
       W~~(EM,bj)         76  185.773 KiB    Yes     -    62.771 MiB
       W~~(Em,Bj)         78  185.773 KiB    Yes     -    62.771 MiB
       W~~(Ij,Mb)        165   11.508 KiB    Yes     -    18.430 MiB
       W~~(Mn,Ij)        153      872   B    Yes     -   115.812 KiB
         X(Ab,Ej)        430    2.998 MiB    Yes     -    10.995 GiB
         X(Ab,Ij)        416  185.773 KiB     No     -         0   B
            X(EA)      492:0    8.102 KiB    Yes     -     9.452 MiB
            X(EM)      493:0      552   B    Yes     -   291.211 KiB
         X(EM,bj)        418  185.773 KiB     No     -         0   B
         X(Ef,Am)        469    2.998 MiB     No     -         0   B
         X(Em,Bj)        425  185.773 KiB     No     -         0   B
         X(Ij,Mb)        410   11.508 KiB    Yes     -    15.256 MiB
            X(MI)      491:0       56   B    Yes     -    33.984 KiB
         X(Mn,Ie)        465   11.508 KiB     No     -         0   B
         X(Mn,Ij)        413      872   B    Yes     -   167.109 KiB
            Z(AI)       90:2      552   B    Yes     -   250.664 KiB
         Z(Ab,Ij)         63  185.773 KiB    Yes     -    84.360 MiB
      HR(abc,ijk)          -   17.802 MiB     No     1         0   B
       T(abc,ijk)          -   17.802 MiB     No     1         0   B
       Z(abc,ijk)          -   17.802 MiB     No     1         0   B

Simulation and memory analysis took 0.750 seconds

MP2 correlation energy:  -0.380318505910669

Non-iterative calculation of MP2 took 0.393 cpu seconds and 0.022 walltime seconds at 0.053 Gflops/sec

Total MP2 energy: -109.364384777283263

Beginning iterative solution of CC3 equations:

It.  Correlation Energy T1 Residual T2 Residual CPU Time (s) Walltime (s)
-------------------------------------------------------------------------
  1  -0.398485742778818 3.23676e-03 5.29603e-03       17.562        1.032
  2  -0.397852511605718 3.94526e-04 5.74407e-04       11.246        0.564
  3  -0.397796303410356 4.30951e-05 5.92018e-05       10.136        0.509
  4  -0.397789441938418 4.67623e-06 6.75190e-06        9.954        0.499
  5  -0.397788226621984 4.60913e-07 1.13201e-06        9.900        0.496

   A    I                     A    I                     A    I                  
-------------------------- -------------------------- -------------------------- 
  29    7  0.0155667821731   41    7  0.0090562386887   53    6  0.0066807549345 
  28    6  0.0155667821603   13    7  0.0079772581614   54    7  0.0066807549331 
  11    5 -0.0129224957202   12    6  0.0079772581431   21    4  0.0062489430532 
  34    4 -0.0106469401923   62    7  0.0077467058511   14    5 -0.0059287261517 
  40    6  0.0090562386913   61    6  0.0077467058510   30    4  0.0045775780560 

   A    B    I    J                     A    B    I    J                  
------------------------------------ ------------------------------------ 
  15   15    6    6 -0.0585265091140   16   15    7    6 -0.0383856924637 
  16   16    7    7 -0.0585265091131   15   16    6    7 -0.0383856924637 
  15    9    6    6 -0.0516633217223   16    9    7    6 -0.0339063144419 
   9   15    6    6 -0.0516633217223    9   16    6    7 -0.0339063144419 
  16   10    7    7 -0.0516633217176   10   15    7    6 -0.0339063144378 
  10   16    7    7 -0.0516633217176   15   10    6    7 -0.0339063144378 
   9    9    6    6 -0.0460200120834   10    9    7    6 -0.0303066739237 
  10   10    7    7 -0.0460200120769 

It.  Correlation Energy T1 Residual T2 Residual CPU Time (s) Walltime (s)
-------------------------------------------------------------------------
  6  -0.397788080092319 4.61596e-08 1.85638e-07       10.471        0.526
  7  -0.397788068165811 5.64726e-09 3.02416e-08       10.007        0.502

CC3 iterations converged in 7 cycles and 4.127 seconds (0.590 s/it.) at 1.799 Gflops/sec

Total CC3 energy: -109.381854339538407

             _
Formation of H took 0.432 seconds at 2.670 Gflops/sec

Searching for 1 roots in irrep 1

EOMEE-CCSD guess vector:

   A    I                  
-------------------------- 
  11    5  1.0000000000000 

Beginning iterative solution of EOMEE-CC3 equations:

It.  Correlation Energy R1 Residual R2 Residual CPU Time (s) Walltime (s)
-------------------------------------------------------------------------
  1   0.622947041759596 1.72110e-02 7.59471e-02       12.066        0.607
  2   0.544030625947446 5.21631e-02 5.04219e-02       12.469        0.628
  3   0.489732432706475 1.35099e-02 5.91100e-03       11.261        0.564
  4   0.484534897080808 2.88895e-02 3.98027e-03       11.428        0.573
  5   0.481154546713205 7.89423e-03 2.80708e-03       11.819        0.592
  6   0.478807613373582 6.64702e-03 1.45420e-03       11.590        0.581
  7   0.478434883144802 1.75926e-03 8.47615e-04       11.976        0.600
  8   0.478230009945336 1.41338e-03 2.38790e-04       12.245        0.614
Locking on root: 0.478223426705758
  9   0.478223426705758 7.65921e-04 2.68692e-04       12.359        0.619
 10   0.478248478712123 2.78834e-04 1.44606e-04       12.636        0.633
 11   0.478203937850223 9.08241e-05 7.78356e-05       12.701        0.637
 12   0.478209860750073 3.24440e-05 5.22134e-05       13.426        0.673
 13   0.478211282304501 3.27114e-05 3.05267e-05       13.860        0.695
 14   0.478208291994534 1.88238e-05 1.38242e-05       14.595        0.732
 15   0.478209898070425 5.50384e-06 5.34023e-06       14.670        0.735

EOMEE-CC3 iterations converged in 15 cycles and 9.484 seconds (0.632 s/it.) at 2.907 Gflops/sec

EOMEE-CC3 excitation energy:   0.478209898070432 ( 13.012752882069442 eV)
Total EOMEE-CC3 energy:      -108.903644441467975

Converged root:

   A    I                     A    I                     A    I                  
-------------------------- -------------------------- -------------------------- 
  11    5  0.6024009950540   12    6 -0.0414042007991   11    3 -0.0108941311352 
  14    5  0.2765580080475    8    4  0.0286599703243   17    4 -0.0103816075397 
  20    5 -0.0518450885449   29    7 -0.0261610350469   41    7 -0.0065878806361 
  31    5 -0.0417392849281   28    6 -0.0261610350068   40    6 -0.0065878806349 
  13    7 -0.0414042010072   35    5  0.0115084671307   34    4 -0.0059608615288 

   A    B    I    J                     A    B    I    J                  
------------------------------------ ------------------------------------ 
  11   11    5    5  0.0829461840005    9   11    6    4  0.0468716717186 
  11   16    4    7  0.0519891769017   31   11    5    5 -0.0371796167834 
  16   11    7    4  0.0519891769017   11   31    5    5 -0.0371796167834 
  11   15    4    6  0.0519891768903   14   11    5    5  0.0321896062299 
  15   11    6    4  0.0519891768903   11   14    5    5  0.0321896062299 
  11   10    4    7  0.0468716717245   11   29    5    7  0.0315999502347 
  10   11    7    4  0.0468716717245   29   11    7    5  0.0315999502347 
  11    9    4    6  0.0468716717186 

Searching for 3 roots in irrep 2

EOMEE-CCSD guess vector:

   A    I                  
-------------------------- 
  12    5  1.0000000000000 

Beginning iterative solution of EOMEE-CC3 equations:

It.  Correlation Energy R1 Residual R2 Residual CPU Time (s) Walltime (s)
-------------------------------------------------------------------------
  1   0.631639473932784 3.13068e-02 6.70791e-02       10.866        0.545
  2   0.554577002717708 3.71053e-02 2.57660e-02       10.610        0.532
  3   0.491412417728800 8.89619e-03 4.50200e-03       11.086        0.556
  4   0.492979155493189 6.14521e-03 1.78918e-03       11.144        0.559
  5   0.491475161994521 3.04896e-03 1.37243e-03       11.239        0.563
  6   0.490535007207041 5.04984e-03 7.99522e-04       11.671        0.585
  7   0.491507481332790 2.56138e-03 1.22026e-03       11.967        0.600
  8   0.488113053653619 5.76155e-03 1.39869e-03       12.045        0.604
  9   0.487976148124259 4.14451e-03 8.54721e-04       12.772        0.640
 10   0.488101936696770 6.64299e-03 1.08323e-03       12.636        0.633
 11   0.486402992226470 4.28361e-03 1.68550e-03       13.106        0.657
 12   0.486764702816885 2.77770e-03 1.41855e-03       13.506        0.677
 13   0.485997477415097 1.58806e-03 6.31957e-04       13.898        0.697
 14   0.485909575814332 2.59876e-04 3.70070e-04       14.165        0.710
 15   0.485971731871395 2.80931e-04 1.37555e-04       14.574        0.730
 16   0.485913519313630 6.99630e-05 6.98229e-05       15.412        0.772
Locking on root: 0.485928750386120
 17   0.485928750386120 7.61926e-05 3.52415e-05       15.824        0.793
 18   0.485927006012217 1.67191e-05 1.42782e-05       16.344        0.819
 19   0.485926227831040 6.53726e-06 7.80135e-06       16.921        0.848

EOMEE-CC3 iterations converged in 19 cycles and 12.520 seconds (0.659 s/it.) at 3.147 Gflops/sec

EOMEE-CC3 excitation energy:   0.485926227831044 ( 13.222724889626285 eV)
Total EOMEE-CC3 energy:      -108.895928111707363

Converged root:

   A    I                     A    I                     A    I                  
-------------------------- -------------------------- -------------------------- 
  12    5 -0.4374621156111   18    7 -0.0429770589200   22    5 -0.0219395502046 
   9    4  0.3721393266409   19    6 -0.0429770588792   14    6 -0.0208799004451 
  15    4  0.2432388652609   24    4  0.0348357304011   32    4  0.0199626699315 
  11    6 -0.0939020260628   36    7 -0.0248894174203   31    6  0.0173783984496 
  28    5 -0.0533223544680   37    6 -0.0248894174152   12    3  0.0169641743356 

   A    B    I    J                     A    B    I    J                  
------------------------------------ ------------------------------------ 
   9    9    6    5  0.1001079469660   16    9    7    5  0.0542552619579 
   9    9    5    6  0.1001079469660    9   16    5    7  0.0542552619579 
   9   15    6    5  0.0935391104141   10    9    7    5  0.0523869102277 
  15    9    5    6  0.0935391104141    9   10    5    7  0.0523869102277 
  15    9    6    5  0.0912727935546    9   16    7    5  0.0506905900010 
   9   15    5    6  0.0912727935546   16    9    5    7  0.0506905900010 
  15   15    6    5  0.0807485269086    9   10    7    5  0.0491315157642 
  15   15    5    6  0.0807485269086 

EOMEE-CCSD guess vector:

   A    I                  
-------------------------- 
  11    6  1.0000000000000 

Beginning iterative solution of EOMEE-CC3 equations:

It.  Correlation Energy R1 Residual R2 Residual CPU Time (s) Walltime (s)
-------------------------------------------------------------------------
  1   0.638359947764824 8.91352e-02 3.17262e-02       10.800        0.541
  2   0.523748244024368 2.01810e-02 5.50557e-03       10.840        0.543
  3   0.522338358436971 3.68988e-02 3.26923e-03       10.913        0.547
  4   0.516971641161676 1.39228e-02 2.41977e-03       11.105        0.557
  5   0.512789247918537 3.64018e-03 1.13451e-03       11.248        0.564
  6   0.513716614536365 1.98829e-03 3.33784e-04       11.488        0.576
  7   0.513483833539357 1.61160e-03 1.79224e-04       11.837        0.593
  8   0.513167509081453 1.96014e-03 2.45258e-04       12.180        0.610
  9   0.598725224641384 3.00329e-02 3.39333e-03       12.671        0.635
 10   0.591919447321699 4.76472e-03 1.99363e-03       12.759        0.639
 11   0.510373323947872 2.10757e-02 4.12392e-03       13.258        0.664
 12   0.498123018809009 9.55583e-03 2.15245e-03       13.761        0.690
 13   0.496213698593698 3.41664e-03 1.16292e-03       14.023        0.703
 14   0.496022494434646 1.19698e-03 6.81932e-04       14.602        0.732
 15   0.495909484457055 4.21608e-04 2.92557e-04       15.237        0.764
Locking on root: 0.495901785004489
 16   0.495901785004489 1.87951e-04 1.09791e-04       15.888        0.796
 17   0.495902596681670 8.63050e-05 4.78451e-05       16.289        0.816
 18   0.495896120209742 2.80227e-05 2.54556e-05       16.971        0.851
 19   0.495897316666602 1.39089e-05 9.02040e-06       17.619        0.883
Compacting subspace
 20   0.495896713689308 7.13194e-04 4.12866e-05       23.089        1.157
 21   0.495896762863970 4.49888e-06 3.81099e-06       13.235        0.663

EOMEE-CC3 iterations converged in 21 cycles and 14.526 seconds (0.692 s/it.) at 3.381 Gflops/sec

EOMEE-CC3 excitation energy:   0.495896762863964 ( 13.494036941110210 eV)
Total EOMEE-CC3 energy:      -108.885957576674443

Converged root:

   A    I                     A    I                     A    I                  
-------------------------- -------------------------- -------------------------- 
  12    5  0.4693265979001   28    5  0.0507966778561   11    6  0.0260567387964 
   9    4  0.3430891221734   18    7 -0.0469465315666   20    6 -0.0247734970751 
  15    4  0.2763202786275   19    6 -0.0469465315226   36    7 -0.0193121354122 
  24    4  0.0563172205602   22    5  0.0309546900681   37    6 -0.0193121354092 
  14    6  0.0527484260882   32    4  0.0270332062512   40    5 -0.0115698511287 

   A    B    I    J                     A    B    I    J                  
------------------------------------ ------------------------------------ 
   9    9    6    5  0.0885371137401   10    9    7    5  0.0492534770500 
   9    9    5    6  0.0885371137401    9   10    5    7  0.0492534770500 
  15    9    6    5  0.0789541368240   16    9    7    5  0.0482441564450 
   9   15    5    6  0.0789541368240    9   16    5    7  0.0482441564450 
   9   15    6    5  0.0710792745299    9   10    7    5  0.0423364961864 
  15    9    5    6  0.0710792745299   10    9    5    7  0.0423364961864 
  15   15    6    5  0.0602640275920    9   16    7    5  0.0416118196710 
  15   15    5    6  0.0602640275920 

EOMEE-CCSD guess vector:

   A    I                  
-------------------------- 
  14    6  1.0000000000000 

Beginning iterative solution of EOMEE-CC3 equations:

It.  Correlation Energy R1 Residual R2 Residual CPU Time (s) Walltime (s)
-------------------------------------------------------------------------
  1   0.682493449368613 1.34311e-01 3.31621e-02       10.742        0.538
  2   0.561087004290089 4.21863e-02 8.42705e-03       10.999        0.551
  3   0.549293318614591 9.44000e-02 6.11048e-03       11.180        0.560
  4   0.522869172272807 1.90407e-02 4.85040e-03       11.233        0.563
  5   0.513836838841258 1.24629e-02 1.57626e-03       11.458        0.574
  6   0.513892634936941 3.23383e-03 7.18645e-04       11.742        0.589
  7   0.513620079663048 6.05618e-04 2.54943e-04       12.056        0.604
  8   0.513495685193125 2.33724e-04 1.25644e-04       12.358        0.619
  9   0.513553724571235 1.04479e-04 6.94769e-05       12.819        0.642
Locking on root: 0.513533937224361
 10   0.513533937224361 6.10399e-05 2.44307e-05       13.155        0.659
 11   0.513527673435456 3.82694e-05 1.06522e-05       13.697        0.687
 12   0.513534578709967 1.25889e-05 4.21068e-06       14.052        0.704
 13   0.513532444584930 3.15367e-06 1.83798e-06       14.546        0.729

EOMEE-CC3 iterations converged in 13 cycles and 8.022 seconds (0.617 s/it.) at 3.045 Gflops/sec

EOMEE-CC3 excitation energy:   0.513532444584925 ( 13.973928237939647 eV)
Total EOMEE-CC3 energy:      -108.868321894953482

Converged root:

   A    I                     A    I                     A    I                  
-------------------------- -------------------------- -------------------------- 
  11    6 -0.5907774678671    9    4 -0.0209993865388   12    3  0.0054265655617 
  14    6 -0.3168304641682   35    6 -0.0142898569560   60    6 -0.0051021571985 
  12    5  0.0997653163862   28    5  0.0138382768508   28    3  0.0045482767767 
  20    6  0.0679229103467   15    4 -0.0122222886549   61    5  0.0015966413027 
  31    6  0.0614941815435   22    5  0.0079296970921   18    7  0.0014804715445 

   A    B    I    J                     A    B    I    J                  
------------------------------------ ------------------------------------ 
  11   11    6    5 -0.0336360243676   29   11    7    6 -0.0301920535496 
  11   11    5    6 -0.0336360243676   11   29    6    7 -0.0301920535496 
  28   11    6    6 -0.0329921725909   11   15    4    5 -0.0261383462716 
  11   28    6    6 -0.0329921725909   15   11    5    4 -0.0261383462716 
  12   11    6    6 -0.0315402936391   30   11    4    6 -0.0258921299991 
  11   12    6    6 -0.0315402936391   11   30    6    4 -0.0258921299991 
  11   31    6    5  0.0303090259766   13   11    7    6 -0.0258815448807 
  31   11    5    6  0.0303090259766 

Searching for 2 roots in irrep 5

EOMEE-CCSD guess vector:

   A    I                  
-------------------------- 
   8    5  1.0000000000000 

Beginning iterative solution of EOMEE-CC3 equations:

It.  Correlation Energy R1 Residual R2 Residual CPU Time (s) Walltime (s)
-------------------------------------------------------------------------
  1   0.629705025628921 2.64190e-02 6.70096e-02       10.735        0.538
  2   0.552140220497421 6.31051e-02 2.76100e-02       10.732        0.538
  3   0.487725176499666 1.24932e-02 4.84181e-03       10.914        0.547
  4   0.487000289382660 2.11928e-02 3.20589e-03       10.971        0.550
  5   0.484231513751716 3.65832e-03 1.49748e-03       11.179        0.560
  6   0.482098748242083 4.07467e-03 5.70966e-04       11.357        0.569
  7   0.482888305108680 3.13937e-03 6.61236e-04       11.611        0.582
  8   0.482363536148388 2.06941e-03 5.57536e-04       11.862        0.595
  9   0.481897685165838 4.84233e-04 3.93989e-04       12.196        0.611
 10   0.482224326003832 2.60867e-04 1.10255e-04       12.692        0.636
 11   0.482164766570404 1.01795e-04 2.73049e-05       12.922        0.648
Locking on root: 0.482144709975371
 12   0.482144709975371 3.90402e-05 1.17939e-05       13.293        0.666
 13   0.482155747708078 2.05268e-05 3.95792e-06       13.806        0.692
 14   0.482152416180758 3.86673e-06 2.36467e-06       14.151        0.709

EOMEE-CC3 iterations converged in 14 cycles and 8.442 seconds (0.603 s/it.) at 2.951 Gflops/sec

EOMEE-CC3 excitation energy:   0.482152416180753 ( 13.120034253930836 eV)
Total EOMEE-CC3 energy:      -108.899701923357654

Converged root:

   A    I                     A    I                     A    I                  
-------------------------- -------------------------- -------------------------- 
   8    5 -0.6213102166015   16    7  0.0360302967039   34    5 -0.0131208894141 
  17    5  0.1831222168672   15    6  0.0360302947261   17    3 -0.0074252759097 
  11    4 -0.1130257883402   30    5 -0.0324270543786   21    5 -0.0071337987956 
  10    7  0.0972352654031   31    4  0.0189842148332   44    5 -0.0050830475721 
   9    6  0.0972352625977    8    3  0.0182344760722   35    4 -0.0047924314155 

   A    B    I    J                     A    B    I    J                  
------------------------------------ ------------------------------------ 
   8   16    4    7 -0.0522991068923    8   10    4    7 -0.0450400016201 
  16    8    7    4 -0.0522991068923   10    8    7    4 -0.0450400016201 
   8   15    4    6 -0.0522991068771    8   31    5    5  0.0427515972346 
  15    8    6    4 -0.0522991068771   31    8    5    5  0.0427515972346 
   8   11    5    5 -0.0501890402045   29    8    7    5 -0.0343774505165 
  11    8    5    5 -0.0501890402045    8   29    5    7 -0.0343774505165 
   8    9    4    6 -0.0450400016352   28    8    6    5 -0.0343774504914 
   9    8    6    4 -0.0450400016352 

EOMEE-CCSD guess vector:

   A    I                  
-------------------------- 
  10    7  1.0000000000000 

Beginning iterative solution of EOMEE-CC3 equations:

It.  Correlation Energy R1 Residual R2 Residual CPU Time (s) Walltime (s)
-------------------------------------------------------------------------
  1   0.631679974395721 1.77726e-01 2.63744e-02       10.768        0.540
  2   0.464116112386373 1.00766e-01 6.86591e-03       11.029        0.553
  3   0.408538435524114 4.31739e-02 1.14170e-02       10.947        0.549
  4   0.383603145047396 1.39029e-02 4.14616e-03       11.231        0.563
  5   0.378550021409913 6.67923e-03 7.87372e-04       11.550        0.579
  6   0.378510976572092 2.77020e-03 8.76210e-04       11.581        0.580
  7   0.378375368560002 6.86371e-04 3.56191e-04       11.891        0.596
  8   0.378239121457209 2.32381e-04 1.22706e-04       12.249        0.614
Locking on root: 0.378271222744526
  9   0.378271222744526 1.20990e-04 5.23883e-05       12.557        0.629
 10   0.378262649344839 3.46979e-05 1.75883e-05       12.859        0.644
 11   0.378258923916980 1.46422e-05 5.30096e-06       13.296        0.666
 12   0.378261689844834 4.95215e-06 3.70243e-06       13.850        0.694

EOMEE-CC3 iterations converged in 12 cycles and 7.208 seconds (0.601 s/it.) at 2.922 Gflops/sec

EOMEE-CC3 excitation energy:   0.378261689844834 ( 10.293023867899661 eV)
Total EOMEE-CC3 energy:      -109.003592649693573

Converged root:

   A    I                     A    I                     A    I                  
-------------------------- -------------------------- -------------------------- 
   9    6  0.3766585115180   24    6  0.0632065747634   43    5 -0.0045862504421 
  10    7 -0.3766360666249   33    7 -0.0324761123186   27    3 -0.0045229651772 
  16    7 -0.3023224100435   32    6  0.0324744653812   37    4 -0.0043485371309 
  15    6  0.3023164179719   58    7 -0.0098088740264   65    7 -0.0041162945647 
  25    7 -0.0632130406742   57    6  0.0098076383882   64    6  0.0041161877757 

   A    B    I    J                     A    B    I    J                  
------------------------------------ ------------------------------------ 
   9    9    4    5  0.0271034991557   15    9    4    5  0.0248020108720 
   9    9    5    4  0.0271034991557    9   15    5    4  0.0248020108720 
  10   10    4    5 -0.0271001575112   16   10    4    5 -0.0248005280196 
  10   10    5    4 -0.0271001575112   10   16    5    4 -0.0248005280196 
  10   16    4    5 -0.0252363055022   16   16    4    5 -0.0222327314650 
  16   10    5    4 -0.0252363055022   16   16    5    4 -0.0222327314650 
   9   15    4    5  0.0252360234001   15   15    4    5  0.0222287059688 
  15    9    5    4  0.0252360234001 

Searching for 1 roots in irrep 7

EOMEE-CCSD guess vector:

   A    I                  
-------------------------- 
   8    7  1.0000000000000 

Beginning iterative solution of EOMEE-CC3 equations:

It.  Correlation Energy R1 Residual R2 Residual CPU Time (s) Walltime (s)
-------------------------------------------------------------------------
  1   0.647604523489015 2.69207e-02 4.93431e-02       10.520        0.527
  2   0.597898668444055 6.97308e-02 2.17289e-02       10.739        0.538
  3   0.535257919916084 1.08794e-02 3.90820e-03       10.720        0.537
  4   0.543178099117996 2.95234e-02 3.14245e-03       10.814        0.542
  5   0.517205193595816 8.83892e-02 9.78660e-03       11.033        0.553
  6   0.366246698636935 2.82466e-02 7.17412e-03       11.275        0.565
  7   0.346078420295118 1.24795e-02 3.04112e-03       11.474        0.575
  8   0.343885670503392 6.90307e-03 1.38622e-03       11.663        0.585
  9   0.343451692617716 9.90703e-04 5.65182e-04       11.972        0.600
Locking on root: 0.343421712559937
 10   0.343421712559937 2.24040e-04 1.24613e-04       12.375        0.620
 11   0.343397699532361 6.60213e-05 3.40914e-05       12.818        0.642
 12   0.343397193601298 1.96437e-05 1.15456e-05       13.188        0.661
 13   0.343396638956752 9.03847e-06 4.04847e-06       13.568        0.680

EOMEE-CC3 iterations converged in 13 cycles and 7.627 seconds (0.587 s/it.) at 2.906 Gflops/sec

EOMEE-CC3 excitation energy:   0.343396638956747 (  9.344297600923428 eV)
Total EOMEE-CC3 energy:      -109.038457700581660

Converged root:

   A    I                     A    I                     A    I                  
-------------------------- -------------------------- -------------------------- 
  10    5 -0.5250067134887   16    3 -0.0171853015001   25    3 -0.0123120847148 
  16    5 -0.4127934322623   17    7 -0.0169986735462   43    7 -0.0098440619325 
  25    5 -0.0875265561398   13    4  0.0168335800944   42    6  0.0098440619308 
  33    5 -0.0465477546312    8    7  0.0161775048384   10    3 -0.0096594407676 
  58    5 -0.0184851514322   30    7  0.0135689103562   33    3 -0.0091367497440 

   A    B    I    J                     A    B    I    J                  
------------------------------------ ------------------------------------ 
  10   10    4    7 -0.0617582744144   15   10    6    4 -0.0421896899925 
  10   10    7    4 -0.0617582744144   10   15    4    6 -0.0421896899925 
  10   16    4    7 -0.0601809514670   10    9    4    6 -0.0391390096460 
  16   10    7    4 -0.0601809514670    9   10    6    4 -0.0391390096460 
  16   10    4    7 -0.0547422447833   15   16    6    4 -0.0325024296896 
  10   16    7    4 -0.0547422447833   16   15    4    6 -0.0325024296896 
  16   16    4    7 -0.0512243101763   10   34    4    5 -0.0307833108115 
  16   16    7    4 -0.0512243101763 

Searching for 2 roots in irrep 8

EOMEE-CCSD guess vector:

   A    I                  
-------------------------- 
   9    7  1.0000000000000 

Beginning iterative solution of EOMEE-CC3 equations:

It.  Correlation Energy R1 Residual R2 Residual CPU Time (s) Walltime (s)
-------------------------------------------------------------------------
  1   0.572592065454903 7.69473e-02 4.00658e-02       10.389        0.521
  2   0.517828251441174 2.08279e-01 1.35068e-02       10.457        0.524
  3   0.393511980135618 2.75730e-02 8.10492e-03       10.553        0.529
  4   0.373815728658800 1.37555e-02 3.20997e-03       10.860        0.544
  5   0.369806351496683 6.19668e-03 8.13372e-04       10.966        0.550
  6   0.369363561996132 5.98320e-03 7.36562e-04       11.184        0.561
  7   0.368208913604112 5.58040e-03 2.75851e-03       11.420        0.572
  8   0.363986460647046 4.34610e-03 1.57961e-03       11.534        0.578
  9   0.363334477891368 4.11027e-04 6.51702e-04       11.896        0.596
 10   0.363249680866744 3.78966e-04 1.95466e-04       12.213        0.612
Locking on root: 0.363254054314186
 11   0.363254054314186 5.46746e-05 4.34370e-05       12.575        0.630
 12   0.363254792227602 1.93724e-05 1.15888e-05       12.928        0.648
 13   0.363255319617687 7.50979e-06 4.20976e-06       13.344        0.669

EOMEE-CC3 iterations converged in 13 cycles and 7.534 seconds (0.580 s/it.) at 2.790 Gflops/sec

EOMEE-CC3 excitation energy:   0.363255319617693 (  9.884679774206582 eV)
Total EOMEE-CC3 energy:      -109.018599019920714

Converged root:

   A    I                     A    I                     A    I                  
-------------------------- -------------------------- -------------------------- 
  10    6 -0.3723037881834   25    6 -0.0708136540004   64    7  0.0033905871152 
   9    7  0.3722862691242   33    6 -0.0372152507427   65    6 -0.0033896308016 
  15    7  0.3104893587099   32    7  0.0372146793267   50    7  0.0027789958979 
  16    6 -0.3104725077351   57    7  0.0112165888378   51    6 -0.0027781333773 
  24    7  0.0708248191978   58    6 -0.0112155193788   81    7  0.0022273085619 

   A    B    I    J                     A    B    I    J                  
------------------------------------ ------------------------------------ 
  16   28    7    7 -0.0101413975229   37    9    7    3  0.0098742609698 
  28   16    7    7 -0.0101413975229    9   37    3    7  0.0098742609698 
  15   29    6    6  0.0101412475070   36    9    6    3 -0.0098740513828 
  29   15    6    6  0.0101412475070    9   36    3    6 -0.0098740513828 
  36   10    7    3  0.0098747617497   10   42    4    7 -0.0092998748393 
  10   36    3    7  0.0098747617497   42   10    7    4 -0.0092998748393 
  37   10    6    3  0.0098745521628   10   43    4    6 -0.0092995922238 
  10   37    3    6  0.0098745521628 

EOMEE-CCSD guess vector:

   A    I                  
-------------------------- 
  10    6  1.0000000000000 

Beginning iterative solution of EOMEE-CC3 equations:

It.  Correlation Energy R1 Residual R2 Residual CPU Time (s) Walltime (s)
-------------------------------------------------------------------------
  1   0.647615062410178 2.86635e-01 2.37728e-02       10.538        0.528
  2   0.443827035265447 8.27391e-02 8.68166e-03       10.580        0.530
  3   0.393296195806009 2.62982e-02 7.48720e-03       10.752        0.539
  4   0.379120777553244 4.98909e-03 1.42608e-03       10.892        0.546
  5   0.378180397611314 1.49028e-03 3.36214e-04       11.091        0.556
  6   0.378298652066230 6.80826e-04 1.53854e-04       11.266        0.565
  7   0.378255994260529 9.48944e-05 5.56822e-05       11.722        0.587
Locking on root: 0.378262136748167
  8   0.378262136748167 3.27211e-05 1.30698e-05       12.004        0.602
  9   0.378262578868352 6.58619e-06 3.27942e-06       12.216        0.612

EOMEE-CC3 iterations converged in 9 cycles and 5.066 seconds (0.563 s/it.) at 2.706 Gflops/sec

EOMEE-CC3 excitation energy:   0.378262578868359 ( 10.293048059459652 eV)
Total EOMEE-CC3 energy:      -109.003591760670048

Converged root:

   A    I                     A    I                     A    I                  
-------------------------- -------------------------- -------------------------- 
  10    6 -0.3766466657967   24    7 -0.0632042196707   42    5  0.0045858351115 
   9    7 -0.3766464035044   33    6 -0.0324869554101   26    3  0.0045251075046 
  16    6 -0.3023258035549   32    7 -0.0324770124720   36    4  0.0043496338638 
  15    7 -0.3023088953705   58    6 -0.0098107506947   64    7 -0.0041164357304 
  25    6 -0.0632259831947   57    7 -0.0098084174885   65    6 -0.0041161219368 

   A    B    I    J                     A    B    I    J                  
------------------------------------ ------------------------------------ 
   9   10    4    5 -0.0271079220638   10   15    5    4 -0.0248054894856 
  10    9    5    4 -0.0271079220638   15   10    4    5 -0.0248054894856 
  10    9    4    5 -0.0271045779655   16    9    4    5 -0.0248048680227 
   9   10    5    4 -0.0271045779655    9   16    5    4 -0.0248048680227 
   9   16    4    5 -0.0252362208251   15   16    5    4 -0.0222317135358 
  16    9    5    4 -0.0252362208251   16   15    4    5 -0.0222317135358 
  15   10    5    4 -0.0252361993994   16   15    5    4 -0.0222282719577 
  10   15    4    5 -0.0252361993994 

 @CHECKOUT-I, Total execution time (CPU/WALL):     1699.90/      86.25 seconds.
--executable xncc finished with status     0 in       90.10 seconds (walltime).
  The final electronic energy is      -109.003591760670048 a.u. 
  This computation required                          100.28 seconds (walltime).
