 --invoking executable--
/home/CEISAM/blondel-a/soft/cfour2.1/cfour2.1-serial-mkl/bin/xjoda


   *************************************************************************
         <<<     CCCCCC     CCCCCC   |||     CCCCCC     CCCCCC   >>>
       <<<      CCC        CCC       |||    CCC        CCC         >>>
      <<<      CCC        CCC        |||   CCC        CCC            >>>
    <<<        CCC        CCC        |||   CCC        CCC              >>>
      <<<      CCC        CCC        |||   CCC        CCC            >>>
       <<<      CCC        CCC       |||    CCC        CCC         >>>
         <<<     CCCCCC     CCCCCC   |||     CCCCCC     CCCCCC   >>>
   *************************************************************************

     ****************************************************************
     * CFOUR Coupled-Cluster techniques for Computational Chemistry *
     ****************************************************************
 

   Department of Chemistry                Institut fuer Physikalische Chemie
   University of Florida                  Universitaet Mainz
   Gainesville, FL 32611, USA             D-55099 Mainz, Germany

   Department of Chemistry                Fakultaet fuer Chemie und Biowiss.
   Johns Hopkins University               Karlsruher Institut fuer Technologie
   Baltimore, MD 21218, USA               D-76131 Karlsruhe, Germany

   Department of Chemistry                Department of Physical Chemistry
   Southern Methodist University          Eotvos Lorand University
   Dallas, TX 75275, USA                  H-1053 Budapest, Hungary

 
                       Version 2.1
 
                     cribbar053                                        
                     Tue Mar 16 14:57:37 CET 2021                      
                     integer*8 version is running
 
********************************************************************************
*                          Input from ZMAT file                                *
********************************************************************************
Ketene -GS                                                                      
N     0.0000000000            0.0000000000            1.0400863228              
N     0.0000000000            0.0000000000           -1.0400863228              
                                                                                
*CFOUR(COORD=CARTESIAN,UNITS=BOHR                                               
       MEMORY=250,MEM_UNIT=GB,CC_PROG=NCC                                       
       FROZEN_CORE=1                                                            
       CALC=CC4,BASIS=AUG-PVDZ                                                  
       SCF_CONV=8,CC_CONV=7,ESTATE_CONV=5,ESTATE_MAXCYC=120                     
       EXCITE=EOMEE,ESTATE_SYM=1/2/0/0/2/0/1/2)                                 
                                                                                
********************************************************************************
    -------------------------------------------------------------------
                    CFOUR Control Parameters 
    -------------------------------------------------------------------
        External           Internal           Value            Units
          Name               Name
    -------------------------------------------------------------------
       ABCDTYPE             IABCDT         STANDARD    [  0]    ***   
       ANHARMONIC           IANHAR         OFF         [  0]    ***   
       ANH_ALGORIT          IANALG         STANDARD    [  0]    ***   
       ANH_DERIVAT          IANDER         SECOND      [  1]    ***   
       ANH_MODE             ANHMOD         VIBRATION   [  0]    ***   
       ANH_STEPSIZ          ICUBST             50000          x 10-6  
       ANH_SYMMETR          IANHSM         ABELIAN     [  0]    ***   
       AO_LADDERS           IAOLAD         SINGLEPASS  [  1]    ***   
       AV_SCF               IAVSCF         OFF         [  0]    ***   
       BASIS                IBASIS         AUG-PVDZ    [ 33]    ***   
       BOTHVECTORS          BOTHVC         OFF         [  0]    ***   
       BOX_POTENT           IPIAB          OFF         [  0]    ***   
       BREIT                IBREIT         OFF         [  0]    ***   
       BRUCK_CONV           IBRTOL          10D-  4             ***   
       BRUECKNER            IBRKNR         OFF         [  0]    ***   
       BUFFERSIZE           IBUFFS              4096            ***   
       CACHE_RECS           ICHREC             10               ***   
       CALCLEVEL            ICLLVL         CC4         [ 52]    ***   
       CCORBOPT             ICCORB         OFF         [  0]  x 0.01  
       CC_CONV              ICCCNV          10D-  7             ***   
       CC_EXPORDER          ICCEOR              5               ***   
       CC_EXTRAPOL          ICCEXT         DIIS        [  1]    ***   
       CC_GUESS             ICCGES         MP2         [  0]    ***   
       CC_MAXCYC            ICCCYC            100              cycles 
       CC_PROGRAM           ICCPRO         NCC         [  5]    ***   
       CHARGE               ICHRGE              0               ***   
       CHOLESKY             ICHOLE         OFF         [  0]    ***   
       CIS_CONV             ICISTL              5               ***   
       COMM_SIZE            IPSIZE            ***               ***   
       CONSTANT             ICONST         OLD         [  1]    ***   
       CONTINUUM            ICONTU         NONE        [  0]    ***   
       CONTRACTION          ICNTYP         GENERAL     [  1]    ***   
       COORDINATES          ICOORD         CARTESIAN   [  1]    ***   
       CPHF_CONVER          ICPHFT          10D- 16             ***   
       CPHF_MAXCYC          ICPHFC             64              cycles 
       CUBIC                ICUBIC         OFF         [  0]    ***   
       CURVILINEAR          ICURVY         OFF         [  0]    ***   
       DBOC                 IDBOC          OFF         [  0]    ***   
       DCT                  IDCT           OFF         [  0]    ***   
       DERIV_LEV            IDRLVL         ZERO        [  0]    ***   
       DEVMEM_SIZE          IDVMEM         *********           MByte  
       DIAG_MRCC            IEOMST          10D-  0             ***   
       DIFF_TYPE            IDIFTY         RELAXED     [  0]    ***   
       DIRECT               IDIRCT         OFF         [  0]    ***   
       DROPMO               IDRPMO      NONE         
       ECP                  IECP           OFF         [  0]    ***   
       EIGENVECTOR          IVEC                1               ***   
       EL_ANHARM            IELANH         OFF         [  0]    ***   
       EOMFOLLOW            IEOMSR         ENERGY      [  0]    ***   
       EOMIP                IEOMIP         OFF         [  0]    ***   
       EOMLEVEL             HBARFM         SAME        [  0]    ***   
       EOM_MRCC             IMRCCE         NEW         [  1]    ***   
       EOM_NONIT            EOMNON         OFF         [  0]    ***   
       EOM_NSING            IEOMSI          10D-  0             ***   
       EOM_NSTATES          IMRCCD         DAVIDSON    [  0]    ***   
       EOM_NTRIP            IEOMTR          10D-  0             ***   
       EOM_ORDER            IEXORD         ENERGY      [  0]    ***   
       EOM_PROPSTA          IEOMST              0               ***   
       ESTATE_CONV          IEXTOL          10D-  5             ***   
       ESTATE_DIAG          IEXDIG         ITERATIVE   [  0]    ***   
       ESTATE_LOCK          IESLOC         ON          [  1]    ***   
       ESTATE_MAXC          IEXMXC            120               ***   
       ESTATE_PROP          IEXPRP         OFF         [  0]    ***   
       ESTATE_SYM           IEXSYM   1,  2,  0,  0,  2,  0,  1,  2,
       EVAL_HESS            IRECAL              0            # of cyc.
       EXCITATION           IEXCIT              0               ***   
       EXCITE               IEXCIT         EOMEE       [  3]    ***   
       EXTERN_POT           IEXPOT         OFF         [  0]    ***   
       FCGRADNEW            IFCGNW         OFF         [  0]    ***   
       FC_FIELD             IFINFC              0             x 10-6  
       FD_CALTYPE           IFDCAL         GRADONLY    [  0]    ***   
       FD_PROJECT           IFDPRJ         OFF         [  1]    ***   
       FD_STEPSIZE          IDISFD              0            10-4 bohr
       FD_USEGROUP          IFDGRP         FULL        [  0]    ***   
       FILE_RECSIZ          IFLREC              4096           words  
       FINITE_PERT          IFIPER              0             x 10-6  
       FIXGEOM              IFIXGM         OFF         [  0]    ***   
       FOCK                 IFOCK          AO          [  1]    ***   
       FREQ_ALGORI          IVIALG         STANDARD    [  0]    ***   
       FROZEN_CORE          IFROCO         ON          [  1]    ***   
       GAMMA_ABCD           IGABCD         STORE       [  0]    ***   
       GAMMA_ABCI           IGABCI         STORE       [  0]    ***   
       GENBAS_1             IGNBS1              0               ***   
       GENBAS_2             IGNBS2              0               ***   
       GENBAS_3             IGNBS3              0               ***   
       GENBAS_4             IGNBS4              0               ***   
       GEO_CONV             ICONTL              5              H/bohr 
       GEO_MAXCYC           IOPTCY             50               ***   
       GEO_MAXSTEP          IMXSTP            300            millibohr
       GEO_METHOD           INR            SINGLE_POINT[  5]    ***   
       GIAO                 IGIAO          OFF         [  1]    ***   
       GIMIC                IGIMIC         OFF         [  0]    ***   
       GRID                 IGRID          OFF         [  0]    ***   
       GRID_ALGO            IGALGO         SERIAL      [  0]    ***   
       GUESS                IGUESS         MOREAD      [  0]    ***   
       HBAR                 IHBAR          ON          [  1]    ***   
       HESS_TYPE            IHESTP         SCF         [  0]    ***   
       HF2_FILE             IHF2Fl         USE         [  1]    ***   
       HFSTABILITY          ISTABL         OFF         [  0]    ***   
       INCORE               INCORE         OFF         [  0]    ***   
       INPUT_MRCC           IMRCC          ON          [  1]    ***   
       INTEGRALS            INTTYP         VMOL        [  1]    ***   
       JODA_PRINT           IJPRNT              0               ***   
       KEYWORD_OUT          IDMPKW         NO          [  0]    ***   
       LINDEP_TOL           ILINDP              8               ***   
       LINEQ_CONV           IZTACN          10D-  7           cycles  
       LINEQ_EXPOR          ILMAXD              5               ***   
       LINEQ_MAXCY          ILMAXC            100               ***   
       LINEQ_TYPE           ILTYPE         DIIS        [  1]    ***   
       LOCK_ORBOCC          ILOCOC         OFF         [  0]    ***   
       MEMORY_SIZE          IMEMSZ         *********           words  
       MEM_UNIT             IMEMU          GB          [  3]    ***   
       MRCC                 IMRCCC         OFF         [  0]    ***   
       MULTIPLICTY          IMULTP              1               ***   
       NACOUPLING           IVCOUP         OFF         [  0]    ***   
       NEGEVAL              IDIE           ABORT       [  0]    ***   
       NEWNORM              INEWNO         OFF         [  0]    ***   
       NON-HF               INONHF         OFF         [  0]    ***   
       NTOP_TAMP            ITOPT2             15               ***   
       NUC_MODEL            INUCMO         POINT       [  0]    ***   
       OCCUPATION           IOCCU   ESTIMATED BY SCF 
       OPEN-SHELL           IOPEN          SPIN-ORBITAL[  0]    ***   
       OPTVIB               IOPTVB         OFF         [  0]    ***   
       ORBITALS             IORBTP         STANDARD    [  0]    ***   
       PARALLEL             IPARAL         ON          [  1]    ***   
       PARA_INT             IPINTS         ON          [  1]    ***   
       PARA_PRINT           IPPRIN              0               ***   
       PERT_ORB             IPTORB         STANDARD    [  0]    ***   
       POINTS               IGRDFD              0               ***   
       PRINT                IPRNT               0               ***   
       PROPS                IPROPS         OFF         [  0]    ***   
       PROP_INTEGR          IINTYP         INTERNAL    [  0]    ***   
       PSI                  IPSI           OFF         [  0]    ***   
       QC_ALG               IQCALG         FLM         [  0]    ***   
       QC_LINALG            IQCLIN         TRIDIAG     [  2]    ***   
       QC_MAXCYC            IQCMAX          10D-100           cycles  
       QC_MAXSCFCY          IQCMSC          10D- 15           cycles  
       QC_RTRUST            IQCRTR          10D-  0           x 10-3  
       QC_SKIPSCF           IQCSKI         OFF         [  0]    ***   
       QC_START             IQCSTA          10D-  1             ***   
       QRHFGUESS            IQGUES         OFF         [  0]    ***   
       QUARTIC              IQUART         OFF         [  0]    ***   
       RAMAN_INT            IRAMIN         OFF         [  0]    ***   
       RAMAN_ORB            IRAMRE         UNRELAXED   [  0]    ***   
       RDO                  IRDOFM         OFF         [  0]    ***   
       REDUCE_REPR          REDREP         Ir          [  0]    ***   
       REFERENCE            IREFNC         RHF         [  0]    ***   
       RELATIVIST           IRELAT         OFF         [  0]    ***   
       RELAX_DENS           IRDENS         OFF         [  0]    ***   
       RESET_FLAGS          IRESET         OFF         [  0]    ***   
       RESTART_CC           ICCRES         OFF         [  0]    ***   
       ROT_EVEC             ROTVEC              0               ***   
       SAVE_INTS            ISVINT         OFF         [  0]    ***   
       SCALE_ON             ISTCRT              0               ***   
       SCF_CONV             ISCFCV          10D-  8             ***   
       SCF_DAMPING          IDAMP               0             x 10-3  
       SCF_EXPORDE          IRPPOR              6               ***   
       SCF_EXPSTAR          IRPPLS              8               ***   
       SCF_EXTRAPO          IRPP           ON          [  1]    ***   
       SCF_MAXCYC           ISCFCY            150              cycles 
       SCF_NOSTOP           ISCFST         OFF         [  0]    ***   
       SCF_PRINT            ISCFPR              0               ***   
       SCF_PROG             ISCFPR         SCF         [  0]    ***   
       SD_FIELD             IFINSD              0             x 10-6  
       SOPERT               IPERSO         OFF         [  0]    ***   
       SPHERICAL            IDFGHI         ON          [  1]    ***   
       SPINORBIT            ISOCAL         OFF         [  0]    ***   
       SPINROTATIO          ISRCON         OFF         [  0]    ***   
       SPIN_FLIP            ISPFLP         OFF         [  0]    ***   
       SPIN_ORBIT           ISPORB         OFF         [  0]    ***   
       SPIN_SCAL            ISCSMP         OFF         [  0]    ***   
       STEEPSCALE           ISTPSC              1000          x 10-3  
       SUBGROUP             ISUBGP         DEFAULT     [  0]    ***   
       SUBGRPAXIS           ISBXYZ         X           [  0]    ***   
       SYMMETRY             ISYM           ON          [  0]    ***   
       SYM_CHECK            ISYMCK         OVERRIDE    [  1]    ***   
       T3_EXTRAPOL          IT3EXT         ON          [  1]    ***   
       T4_EXTRAPOL          IT4EXP         OFF         [  0]    ***   
       TAMP_SUM             IEVERY              5               ***   
       TESTSUITE            ITESTS         OFF         [  0]    ***   
       THERMOCH             ITHERM         OFF         [  0]    ***   
       TOL_CHOLESK          ITOLCH          10D-  4             ***   
       TRANGRAD             IRESRM         OFF         [  0]    ***   
       TRANS_INV            ITRAIN         USE         [  0]    ***   
       TREAT_PERT           ITREAT         SIMULTANEOUS[  0]    ***   
       TRIP_ALGORI          ITRALG         NORMAL      [  0]    ***   
       UIJ_THRESHO          IUIJTH              1               ***   
       UNITS                IUNITS         BOHR        [  1]    ***   
       UNOS                 IUNOS          OFF         [  0]    ***   
       UPDATE_HESS          IHUPDT         ON          [  1]    ***   
       VIBPHASE             ISETPH         STANDARD    [  0]    ***   
       VIBRATION            IVIB           NO          [  0]    ***   
       VIB_ALGORIT          IGEALG         STANDARD    [  0]    ***   
       VNATORB              IVNORB         OFF         [  0]    ***   
       VTRAN                IVTRAN         FULL/PARTIAL[  0]    ***   
       XFIELD               IXEFLD              0             x 10-6  
       XFORM_TOL            IXFTOL          10D- 11             ***   
       YFIELD               IYEFLD              0             x 10-6  
       ZFIELD               IZEFLD              0             x 10-6  
       ZSCALE_EXP           IZEXPS         OFF         [  0]    ***   
    -------------------------------------------------------------------
  @GETXYZ-I,     2 atoms read from ZMAT.
   Rotational constants (in cm-1): 
          1.9870203770             1.9870203770
   Rotational constants (in MHz): 
      59569.3806383154         59569.3806383154
********************************************************************************
   The full molecular point group is DXh .
   The largest Abelian subgroup of the full molecular point group is D2h .
   The computational point group is D2h .
********************************************************************************


 ----------------------------------------------------------------
         Coordinates used in calculation (QCOMP) 
 ----------------------------------------------------------------
 Z-matrix   Atomic            Coordinates (in bohr)
  Symbol    Number           X              Y              Z
 ----------------------------------------------------------------
     N         7         0.00000000     0.00000000    -1.04008632
     N         7        -0.00000000     0.00000000     1.04008632
 ----------------------------------------------------------------
 
   Interatomic distance matrix (Angstroms) 
 
                 N             N    
                [ 1]        [ 2]
  N    [ 1]     0.00000
  N    [ 2]     1.10078     0.00000
 rotcon2
   Rotational constants (in cm-1): 
          1.9870203770             0.0000000000
   Rotational constants (in MHz): 
      59569.3806383154             0.0000000000
  There are   2 frozen-core orbitals.
  There are   46 basis functions.
 @GEOPT-W, Archive file not created for single-point calculation.
 @CHECKOUT-I, Total execution time (CPU/WALL):        0.16/       3.70 seconds.
--executable xjoda finished with status     0 in        8.05 seconds (walltime).
 --invoking executable--
/home/CEISAM/blondel-a/soft/cfour2.1/cfour2.1-serial-mkl/bin/xvmol
 SERIAL VERSION OF MOLECULE STARTED
********************************************************************************
                    INPUT FROM MOL FILE
********************************************************************************
INTGRL        1    0    1    0    0    0    0    0    0                         
         *** CFOUR Program System (Release V0.1) ***                            
Ketene -GS                                                                      
    1    3 X  Y   Z   0.10E-08              0    0                              
   9999.00      3.00                                                            
          7.00000000    1    3    1    1    1                                   
N #1   0.000000000000000   0.000000000000000  -1.040086322800000                
   10    4                                                                      
   9046.00000000000       7.000000000000000E-004 -1.530000000000000E-004        
  0.000000000000000E+000  0.000000000000000E+000                                
   1357.00000000000       5.389000000000000E-003 -1.208000000000000E-003        
  0.000000000000000E+000  0.000000000000000E+000                                
   309.300000000000       2.740600000000000E-002 -5.992000000000000E-003        
  0.000000000000000E+000  0.000000000000000E+000                                
   87.7300000000000       0.103207000000000      -2.454400000000000E-002        
  0.000000000000000E+000  0.000000000000000E+000                                
   28.5600000000000       0.278723000000000      -6.745900000000001E-002        
  0.000000000000000E+000  0.000000000000000E+000                                
   10.2100000000000       0.448540000000000      -0.158078000000000             
  0.000000000000000E+000  0.000000000000000E+000                                
   3.83800000000000       0.278238000000000      -0.121831000000000             
  0.000000000000000E+000  0.000000000000000E+000                                
  0.746600000000000       1.544000000000000E-002  0.549003000000000             
  0.000000000000000E+000  0.000000000000000E+000                                
  0.224800000000000      -2.864000000000000E-003  0.578815000000000             
   1.00000000000000       0.000000000000000E+000                                
  6.124000000000000E-002  0.000000000000000E+000  0.000000000000000E+000        
  0.000000000000000E+000   1.00000000000000                                     
    5    3                                                                      
   13.5500000000000       3.991900000000000E-002  0.000000000000000E+000        
  0.000000000000000E+000                                                        
   2.91700000000000       0.217169000000000       0.000000000000000E+000        
  0.000000000000000E+000                                                        
  0.797300000000000       0.510319000000000       0.000000000000000E+000        
  0.000000000000000E+000                                                        
  0.218500000000000       0.462214000000000        1.00000000000000             
  0.000000000000000E+000                                                        
  5.611000000000000E-002  0.000000000000000E+000  0.000000000000000E+000        
   1.00000000000000                                                             
    2    2                                                                      
  0.817000000000000        1.00000000000000       0.000000000000000E+000        
  0.230000000000000       0.000000000000000E+000   1.00000000000000             
FINISH                                                                          
 
********************************************************************************
 ONE- AND TWO-ELECTRON INTEGRALS OVER SYMMETRY-ADAPTED AOS ARE CALCULATED.

  SPHERICAL HARMONICS ARE USED.
  
  INTEGRALS LESS THAN  0.10E-13 ARE NEGLECTED.

  NUCLEAR REPULSION ENERGY :   23.5557371181 A.U.
  @MOLECU-I, ONE ELECTRON INTEGRALS (CPU/WALL):        0.02/       0.26 SECONDS.
  @TWOEL-I,       3188 INTEGRALS OF SYMMETRY TYPE  I I I I
  @TWOEL-I,      19765 INTEGRALS OF SYMMETRY TYPE  I J I J
  @TWOEL-I,      12843 INTEGRALS OF SYMMETRY TYPE  I I J J
  @TWOEL-I,      34045 INTEGRALS OF SYMMETRY TYPE  I J K L
  @TWOEL-I, TOTAL NUMBER OF 2-E INTEGRALS      69841.
  @MOLECU-I, TWO ELECTRON INTEGRALS (CPU/WALL):        0.38/       0.11 SECONDS.
 @CHECKOUT-I, Total execution time (CPU/WALL):        0.42/       0.39 seconds.

Running with 20 threads/proc

--executable xvmol finished with status     0 in        1.59 seconds (walltime).
 --invoking executable--
/home/CEISAM/blondel-a/soft/cfour2.1/cfour2.1-serial-mkl/bin/xvmol2ja
 @GETMEM-I,  Allocated  238418 MB of main memory.
 @CHECKOUT-I, Total execution time (CPU/WALL):        0.03/       0.08 seconds.
--executable xvmol2ja finished with status     0 in        2.38 seconds (walltime).
 --invoking executable--
/home/CEISAM/blondel-a/soft/cfour2.1/cfour2.1-serial-mkl/bin/xvscf
  There are   46 functions in the AO basis.

  There are 8 irreducible representations.

       Irrep        # of functions
         1                 11
         2                  5
         3                  5
         4                  2
         5                 11
         6                  5
         7                  5
         8                  2


  Parameters for SCF calculation: 
        SCF reference function:  RHF  
  Maximum number of iterations:  150
     Full symmetry point group: DXh 
     Computational point group: D2h 
        Initial density matrix: MOREAD                 
     SCF convergence tolerance: 10**(- 8)
  DIIS convergence acceleration:  ON
          Latest start for DIIS:   8
                     DIIS order:   6

  Memory information:     120694 words required.
  Fock matrices are constructed from AO integral file.
 @GETMEM-I,  Allocated       0 MB of main memory.
  Initialization and symmetry analysis required      0.003 seconds.

  @INITGES-I, Occupancies from core Hamiltonian:

          Alpha population by irrep:   2    1    1    0    2    1    0    0
           Beta population by irrep:   2    1    1    0    2    1    0    0


 total no. of electrons in initial guess :  0.000000000000000E+000
  --------------------------------------------------------------------
  Iteration         Total Energy            Largest Density Difference
  --------------------------------------------------------------------
       0            23.555737118092217              0.0000000000D+00
   current occupation vector 
     2  1  1  0  2  1  0  0
     2  1  1  0  2  1  0  0
       1           -99.502880021728402              0.4661528001D+01
   current occupation vector 
     2  1  1  0  2  1  0  0
     2  1  1  0  2  1  0  0
       2           -98.094192186658177              0.8826123372D+02
   current occupation vector 
     3  1  1  0  2  0  0  0
     3  1  1  0  2  0  0  0
       3          -107.370558596361690              0.8858035765D+02
   current occupation vector 
     3  1  1  0  2  0  0  0
     3  1  1  0  2  0  0  0
       4          -108.796517714132563              0.2749979987D+01
   current occupation vector 
     3  1  1  0  2  0  0  0
     3  1  1  0  2  0  0  0
       5          -108.947438439351970              0.3522575821D+00
   current occupation vector 
     3  1  1  0  2  0  0  0
     3  1  1  0  2  0  0  0
       6          -108.960153202978091              0.1528121004D+00
   current occupation vector 
     3  1  1  0  2  0  0  0
     3  1  1  0  2  0  0  0
       7          -108.960220973177314              0.9108795474D-02
   current occupation vector 
     3  1  1  0  2  0  0  0
     3  1  1  0  2  0  0  0
       8          -108.960221610178309              0.9602944254D-03
   current occupation vector 
     3  1  1  0  2  0  0  0
     3  1  1  0  2  0  0  0
       9          -108.960221623369478              0.9772513702D-04
   current occupation vector 
     3  1  1  0  2  0  0  0
     3  1  1  0  2  0  0  0
      10          -108.960221623721111              0.1242832760D-04
   current occupation vector 
     3  1  1  0  2  0  0  0
     3  1  1  0  2  0  0  0
      11          -108.960221623725914              0.2368161760D-05
   current occupation vector 
     3  1  1  0  2  0  0  0
     3  1  1  0  2  0  0  0
      12          -108.960221623725772              0.1607790541D-06
   current occupation vector 
     3  1  1  0  2  0  0  0
     3  1  1  0  2  0  0  0
      13          -108.960221623725658              0.3353672823D-07
   current occupation vector 
     3  1  1  0  2  0  0  0
     3  1  1  0  2  0  0  0

  SCF has converged.

 Density matrix saved to file den.dat
 total electron number:   14.0000000000000     
     E(SCF)=      -108.960221623726000              0.6230591792D-08


  Final occupancies:

     Alpha population by irrep:   3    1    1    0    2    0    0    0
      Beta population by irrep:   3    1    1    0    2    0    0    0


  Eigenvector printing suppressed.

 @PUTMOS-I, Writing converged MOs to NEWMOS. 
 @PUTMOS-I, Symmetry   1 Full Blocks  2 Partial Blocksize   3
 @PUTMOS-I, Symmetry   2 Full Blocks  1 Partial Blocksize   1
 @PUTMOS-I, Symmetry   3 Full Blocks  1 Partial Blocksize   1
 @PUTMOS-I, Symmetry   4 Full Blocks  0 Partial Blocksize   2
 @PUTMOS-I, Symmetry   5 Full Blocks  2 Partial Blocksize   3
 @PUTMOS-I, Symmetry   6 Full Blocks  1 Partial Blocksize   1
 @PUTMOS-I, Symmetry   7 Full Blocks  1 Partial Blocksize   1
 @PUTMOS-I, Symmetry   8 Full Blocks  0 Partial Blocksize   2
 @PUTFOCK-I, Writing converged Fock matrix to NEWFOCK. 
 @PUTFOCK-I, Symmetry   1 Full Blocks  2 Partial Blocksize   3
 @PUTFOCK-I, Symmetry   2 Full Blocks  1 Partial Blocksize   1
 @PUTFOCK-I, Symmetry   3 Full Blocks  1 Partial Blocksize   1
 @PUTFOCK-I, Symmetry   4 Full Blocks  0 Partial Blocksize   2
 @PUTFOCK-I, Symmetry   5 Full Blocks  2 Partial Blocksize   3
 @PUTFOCK-I, Symmetry   6 Full Blocks  1 Partial Blocksize   1
 @PUTFOCK-I, Symmetry   7 Full Blocks  1 Partial Blocksize   1
 @PUTFOCK-I, Symmetry   8 Full Blocks  0 Partial Blocksize   2


 
  ORBITAL EIGENVALUES (ALPHA)  (1H = 27.2113834 eV)

       MO #        E(hartree)               E(eV)           FULLSYM    COMPSYM
       ----   --------------------   --------------------   -------   ---------
    1     1         -15.6994448433        -427.2036127972    SGg+        Ag (1)
    2    24         -15.6960811551        -427.1120821888    SGu+       B1u (5)
    3     2          -1.4770591452         -40.1928227035    SGg+        Ag (1)
    4    25          -0.7821829174         -21.2842792552    SGu+       B1u (5)
    5     3          -0.6341075338         -17.2549432186    SGg+        Ag (1)
    6    17          -0.6141211135         -16.7110850739    PIu        B3u (3)
    7    12          -0.6141211135         -16.7110850727    PIu        B2u (2)
  +++++++++++++++++++++++++++++++++++++++++++++++++++++++++++++++++++++++++++++
    8    26           0.1038381301           2.8255791691    SGu+       B1u (5)
    9    40           0.1236188885           3.3638409708    PIg        B2g (7)
   10    35           0.1236188885           3.3638409709    PIg        B3g (6)
   11     4           0.1401572174           3.8138717788    SGg+        Ag (1)
   12    18           0.1504793630           4.0947516402    PIu        B3u (3)
   13    13           0.1504793630           4.0947516405    PIu        B2u (2)
   14     5           0.1961538393           5.3376173278    SGg+        Ag (1)
   15    41           0.2522283563           6.8634825073    PIg        B2g (7)
   16    36           0.2522283563           6.8634825076    PIg        B3g (6)
   17    27           0.3252061619           8.8493095549    SGu+       B1u (5)
   18    22           0.5859803303          15.9453354314    DEg        B1g (4)
   19     6           0.5859803303          15.9453354314    DEg         Ag (1)
   20     7           0.6908673395          18.7994560543    SGg+        Ag (1)
   21    28           0.7118254817          19.3697560978    SGu+       B1u (5)
   22    19           0.8004592901          21.7816046377    PIu        B3u (3)
   23    14           0.8004592901          21.7816046379    PIu        B2u (2)
   24    45           0.8658480530          23.5609233373    DEu         Au (8)
   25    29           0.8658480530          23.5609233373    DEu        B1u (5)
   26    30           0.9472897124          25.7770635542    SGu+       B1u (5)
   27    42           0.9810683574          26.6962272138    PIg        B2g (7)
   28    37           0.9810683574          26.6962272141    PIg        B3g (6)
   29    20           1.0843677242          29.5071458898    PIu        B3u (3)
   30    15           1.0843677242          29.5071458904    PIu        B2u (2)
   31     8           1.1363255699          30.9209907495    SGg+        Ag (1)
   32    31           1.3273571706          36.1192248772    SGu+       B1u (5)
   33    43           1.3838434260          37.6562940308    PIg        B2g (7)
   34    38           1.3838434260          37.6562940313    PIg        B3g (6)
   35     9           1.9001133306          51.7047123435    SGg+        Ag (1)
   36    21           2.2223941051          60.4744180596    PIu        B3u (3)
   37    16           2.2223941051          60.4744180597    PIu        B2u (2)
   38    10           2.2452964552          61.0976226894    DEg         Ag (1)
   39    23           2.2452964552          61.0976226894    DEg        B1g (4)
   40    46           2.6507038518          72.1293187904    DEu         Au (8)
   41    32           2.6507038518          72.1293187904    DEu        B1u (5)
   42    11           2.9527910327          80.3495288911    SGg+        Ag (1)
   43    33           2.9979409575          81.5781208051    SGu+       B1u (5)
   44    44           3.1307456314          85.1919197026    PIg        B2g (7)
   45    39           3.1307456314          85.1919197026    PIg        B3g (6)
   46    34           3.3303992005          90.6247695194    SGu+       B1u (5)


  VSCF finished.

 @CHECKOUT-I, Total execution time (CPU/WALL):        0.08/       0.41 seconds.
--executable xvscf finished with status     0 in        1.85 seconds (walltime).
 --invoking executable--
/home/CEISAM/blondel-a/soft/cfour2.1/cfour2.1-serial-mkl/bin/xvtran
 @GETMEM-I,  Allocated  238418 MB of main memory.
  Full RHF integral transformation
  The following   2 MOs will be dropped:
    1  6
  There are  44 active molecular orbitals.
  Transformation of IIII integrals :
  1 pass through the AO integral file was required.
        3188 AO integrals were read.
        3572 MO integrals were written to HF2.
  Transformation of IIJJ integrals :
  1 pass through the AO integral file was required.
       12843 AO integrals were read.
       12004 MO integrals were written to HF2.
  Transformation of IJIJ integrals :
  1 pass through the AO integral file was required.
       19765 AO integrals were read.
       18489 MO integrals were written to HF2.
  Transformation of IJKL integrals :
  1 pass through the AO integral file was required.
       34045 AO integrals were read.
       30674 MO integrals were written to HF2.
  Summary of active molecular orbitals: 
------------------------------------------------------------------------
 
  Index      Eigenvalue    Symmetry    Index      Eigenvalue    Symmetry
------------------------------------------------------------------------
     1        -1.4770591        1        23         2.2452965        4
     2        -0.6341075        1        24         0.1038381        5
     3        -0.6141211        2        25         0.3252062        5
     4        -0.6141211        3        26         0.7118255        5
     5        -0.7821829        5        27         0.8658481        5
     6         0.1401572        1        28         0.9472897        5
     7         0.1961538        1        29         1.3273572        5
     8         0.5859803        1        30         2.6507039        5
     9         0.6908673        1        31         2.9979410        5
    10         1.1363256        1        32         3.3303992        5
    11         1.9001133        1        33         0.1236189        6
    12         2.2452965        1        34         0.2522284        6
    13         2.9527910        1        35         0.9810684        6
    14         0.1504794        2        36         1.3838434        6
    15         0.8004593        2        37         3.1307456        6
    16         1.0843677        2        38         0.1236189        7
    17         2.2223941        2        39         0.2522284        7
    18         0.1504794        3        40         0.9810684        7
    19         0.8004593        3        41         1.3838434        7
    20         1.0843677        3        42         3.1307456        7
    21         2.2223941        3        43         0.8658481        8
    22         0.5859803        4        44         2.6507039        8
------------------------------------------------------------------------
  -1.47705914516340      -0.634107533782648      -0.614121113469562     
 -0.614121113515909      -0.782182917433188       0.140157217393514     
  0.196153839345690       0.585980330254164       0.690867339522041     
   1.13632556988874        1.90011333063832        2.24529645520952     
   2.95279103270884       0.150479363005528       0.800459290058381     
   1.08436772422347        2.22239410509834       0.150479362994573     
  0.800459290051755        1.08436772419942        2.22239410509336     
  0.585980330254160        2.24529645520952       0.103838130077419     
  0.325206161879075       0.711825481748970       0.865848053035013     
  0.947289712370121        1.32735717057363        2.65070385177108     
   2.99794095750024        3.33039920048170       0.123618888517078     
  0.252228356299929       0.981068357371740        1.38384342602925     
   3.13074563135171       0.123618888511220       0.252228356286826     
  0.981068357361389        1.38384342601441        3.13074563135162     
  0.865848053035006        2.65070385177107     
 @CHECKOUT-I, Total execution time (CPU/WALL):        0.05/       0.39 seconds.
--executable xvtran finished with status     0 in        1.17 seconds (walltime).
 --invoking executable--
/home/CEISAM/blondel-a/soft/cfour2.1/cfour2.1-serial-mkl/bin/xintprc
 @GETMEM-I,  Allocated  238418 MB of main memory.
  @GMOIAA-I, Processing MO integrals for spin case AA.
  @GMOIAA-I, Generation of integral list completed.
                      TYPE                NUMBER
                      ----               --------
                      PPPP                 39913
                      PPPH                 20001
                      PPHH                  2669
                      PHPH                  1697
                      PHHH                   426
                      HHHH                    33

                     TOTAL                 64739

  @FORMT2-I, Second-order MP correlation energies:
            ------------------------------------------------
            E(SCF)                  =   -108.960221623726 a.u.
            E2(AA)                  =     -0.042423039488 a.u.
            E2(AB)                  =     -0.233282598057 a.u.
            E2(TOT)                 =     -0.318128677033 a.u.
            Total MP2 energy        =   -109.278350300759 a.u.
            ------------------------------------------------
   Largest T2 amplitudes for spin case AB:
       _       _                 _       _                 _       _
   i   j   a   b             i   j   a   b             i   j   a   b
-----------------------------------------------------------------------------
[  4   4  38  38]-0.04875 [  3   3  33  33]-0.04875 [  4   4  39  38]-0.04434
[  4   4  38  39]-0.04434 [  3   3  34  33]-0.04434 [  3   3  33  34]-0.04434
[  3   3  34  34]-0.04167 [  4   4  39  39]-0.04167 [  4   3  38  33]-0.03918
[  3   4  33  38]-0.03918 [  4   3  38  34]-0.03559 [  3   4  34  38]-0.03559
[  4   3  39  33]-0.03559 [  3   4  33  39]-0.03559 [  4   3  39  34]-0.03324
-----------------------------------------------------------------------------
   Norm of T2AB vector (     5145 symmetry allowed elements):  0.2885862353.
-----------------------------------------------------------------------------
 @CHECKOUT-I, Total execution time (CPU/WALL):        0.09/       0.80 seconds.
--executable xintprc finished with status     0 in        2.00 seconds (walltime).
  calling xncc 
 --invoking executable--
/home/CEISAM/blondel-a/soft/cfour2.1/cfour2.1-serial-mkl/bin/xncc
 @GETMEM-I,  Allocated       7 MB of main memory.

Running with 20 threads/proc

Following the lowest-energy eigenvector.
Using a partitioned Davidson procedure.
Using discrete restarting.
Using an orthogonal subspace.
Orthogonalizing against previous roots.
Using Modified Gram-Schmidt orthogonalization.

Using DIIS to accelerate the convergence of T1 and T2
Using DIIS to accelerate the convergence of T3
Using immediate high-order contributions
Performing 2 CCSDT sub-iterations
Damping factor for T3: 0.000000
Damping factor for T4: 0.000000

Transposes are coarse-threaded

Memory limit:                232.831 GiB
Minimum memory requirement:    4.821 MiB
Compromise memory amount:    216.017 MiB
Optimal memory requirement:  321.416 MiB

List              Location   Size        Cached Hunks Est. Disk I/O
----------------- ---------- ----------- ------ ----- -------------

           HR_DAV      470:1    1.265 MiB    Yes     -     4.637 GiB
                R        471  301.523 KiB    Yes     -    26.501 MiB
            R_DAV      470:0    1.265 MiB    Yes     -     8.477 GiB
           T_DIIS       70:0  202.266 KiB    Yes     -     3.555 MiB
           Z_DIIS       70:1  202.266 KiB    Yes     -     5.926 MiB
          <AI|bj>         18   40.195 KiB    Yes     -     7.008 MiB
          <Ab|Cd>        233    2.261 MiB    Yes     -    21.145 GiB
          <Ab|Ci>         30  302.461 KiB    Yes     -     1.843 GiB
          <Ab|Ij>         16   40.195 KiB    Yes     -   280.226 MiB
          <Ai|Bj>         25   40.195 KiB    Yes     -     6.634 MiB
          <Aj|bI>         21   40.195 KiB     No     -         0   B
          <Ij|Ka>         10    5.367 KiB    Yes     -    46.870 MiB
          <Ij|Kl>         13      872   B    Yes     -    66.422 KiB
           DD(AI)      448:8      264   B    Yes     -    25.414 KiB
        DD(Ab,Ij)        450   40.195 KiB    Yes     -     4.577 MiB
            F(EA)       92:0    1.836 KiB    Yes     -     3.638 MiB
            F(EM)       93:0      264   B    Yes     -   391.875 KiB
            F(MI)       91:0       56   B    Yes     -   131.469 KiB
           HR(AI)      490:2      264   B    Yes     -     1.802 MiB
        HR(Ab,Ij)        463   40.195 KiB    Yes     -   575.923 MiB
            Q(AI)      190:2      264   B    Yes     -    92.812 KiB
         Q(Ab,Ij)         50   40.195 KiB    Yes     -    60.057 MiB
        QQ(Ab,Ij)          3   40.195 KiB    Yes     -     9.036 MiB
            R(AI)      490:0      264   B    Yes     -     4.210 MiB
         R(Ab,Ij)        446   40.195 KiB    Yes     -   932.348 MiB
            T(AI)       90:0      264   B    Yes     -   880.688 KiB
         T(Ab,Ij)         46   40.195 KiB    Yes     -   403.031 MiB
         W(Mn,Ij)         53      872   B    Yes     -     1.174 MiB
        W~(Ab,Ej)        130  302.461 KiB    Yes     -     1.417 GiB
        W~(EM,bj)         56   40.195 KiB    Yes     -    93.467 MiB
        W~(Em,Bj)         58   40.195 KiB    Yes     -   118.702 MiB
        W~(Ij,Mb)        110    5.367 KiB    Yes     -     9.996 MiB
       W~~(Ab,Ef)         33    2.261 MiB    Yes     -   284.874 MiB
       W~~(Ab,Ej)        169  302.461 KiB    Yes     -     1.018 GiB
       W~~(EM,bj)         76   40.195 KiB    Yes     -    27.713 MiB
       W~~(Em,Bj)         78   40.195 KiB    Yes     -    27.713 MiB
       W~~(Ij,Mb)        165    5.367 KiB    Yes     -    46.012 MiB
       W~~(Mn,Ij)        153      872   B    Yes     -   106.445 KiB
         X(Ab,Ef)        433    2.261 MiB    Yes     -    14.264 GiB
         X(Ab,Ej)        430  302.461 KiB    Yes     -     1.814 GiB
         X(Ab,Ij)        416   40.195 KiB     No     -         0   B
            X(EA)      492:0    1.836 KiB    Yes     -     2.683 MiB
            X(EM)      493:0      264   B    Yes     -   243.750 KiB
         X(EM,bj)        418   40.195 KiB    Yes     -    65.896 MiB
         X(Ef,Am)        469  302.461 KiB    Yes     -   443.746 MiB
         X(Em,Bj)        425   40.195 KiB    Yes     -    83.468 MiB
         X(Ij,Mb)        410    5.367 KiB    Yes     -    34.847 MiB
            X(MI)      491:0       56   B    Yes     -    49.805 KiB
         X(Mn,Ie)        465    5.367 KiB    Yes     -    20.018 MiB
         X(Mn,Ij)        413      872   B    Yes     -   875.156 KiB
            Z(AI)       90:2      264   B    Yes     -    92.812 KiB
         Z(Ab,Ij)         63   40.195 KiB    Yes     -    14.131 MiB
      HR(abc,ijk)    HR3FILE    1.739 MiB    Yes     1     9.725 GiB
    HR(abcd,ijkl)          -   99.992 MiB     No     1         0   B
            HR3_1      HR3_1    1.739 MiB    Yes     1    10.355 GiB
           HR3_10     HR3_10    1.739 MiB    Yes     1    11.147 GiB
           HR3_11     HR3_11    1.739 MiB    Yes     1    10.258 GiB
           HR3_12     HR3_12    1.739 MiB    Yes     1    10.458 GiB
           HR3_13     HR3_13    1.739 MiB    Yes     1    10.657 GiB
           HR3_14     HR3_14    1.739 MiB    Yes     1    10.857 GiB
           HR3_15     HR3_15    1.739 MiB    Yes     1    11.056 GiB
           HR3_16     HR3_16    1.739 MiB    Yes     1    11.256 GiB
           HR3_17     HR3_17    1.739 MiB    Yes     1    11.455 GiB
           HR3_18     HR3_18    1.739 MiB    Yes     1    11.655 GiB
           HR3_19     HR3_19    1.739 MiB    Yes     1    11.854 GiB
            HR3_2      HR3_2    1.739 MiB    Yes     1     9.269 GiB
           HR3_20     HR3_20    1.739 MiB    Yes     1    12.054 GiB
           HR3_21     HR3_21    1.739 MiB    Yes     1   349.642 MiB
           HR3_22     HR3_22    1.739 MiB    Yes     1   349.642 MiB
           HR3_23     HR3_23    1.739 MiB    Yes     1   349.642 MiB
           HR3_24     HR3_24    1.739 MiB    Yes     1   349.642 MiB
           HR3_25     HR3_25    1.739 MiB    Yes     1   349.642 MiB
           HR3_26     HR3_26    1.739 MiB    Yes     1   349.642 MiB
           HR3_27     HR3_27    1.739 MiB    Yes     1   349.642 MiB
           HR3_28     HR3_28    1.739 MiB    Yes     1   349.642 MiB
           HR3_29     HR3_29    1.739 MiB    Yes     1   349.642 MiB
            HR3_3      HR3_3    1.739 MiB    Yes     1     9.477 GiB
           HR3_30     HR3_30    1.739 MiB    Yes     1   349.642 MiB
           HR3_31     HR3_31    1.739 MiB     No     1         0   B
           HR3_32     HR3_32    1.739 MiB     No     1         0   B
            HR3_4      HR3_4    1.739 MiB    Yes     1     9.685 GiB
            HR3_5      HR3_5    1.739 MiB    Yes     1     9.893 GiB
            HR3_6      HR3_6    1.739 MiB    Yes     1    10.101 GiB
            HR3_7      HR3_7    1.739 MiB    Yes     1    10.308 GiB
            HR3_8      HR3_8    1.739 MiB    Yes     1    10.516 GiB
            HR3_9      HR3_9    1.739 MiB    Yes     1    10.724 GiB
       Q(abc,ijk)     Q3FILE    1.739 MiB    Yes     1   104.329 MiB
       R(abc,ijk)     R3FILE    1.739 MiB    Yes     1    23.092 GiB
             R3_1       R3_1    1.739 MiB    Yes     1    19.200 GiB
            R3_10      R3_10    1.739 MiB    Yes     1    19.693 GiB
            R3_11      R3_11    1.739 MiB    Yes     1    18.637 GiB
            R3_12      R3_12    1.739 MiB    Yes     1    18.837 GiB
            R3_13      R3_13    1.739 MiB    Yes     1    19.036 GiB
            R3_14      R3_14    1.739 MiB    Yes     1    19.236 GiB
            R3_15      R3_15    1.739 MiB    Yes     1    19.435 GiB
            R3_16      R3_16    1.739 MiB    Yes     1    19.635 GiB
            R3_17      R3_17    1.739 MiB    Yes     1    19.834 GiB
            R3_18      R3_18    1.739 MiB    Yes     1    20.034 GiB
            R3_19      R3_19    1.739 MiB    Yes     1    20.233 GiB
           R3_1_1     R3_1_1    1.739 MiB    Yes     1   130.412 MiB
             R3_2       R3_2    1.739 MiB    Yes     1    17.815 GiB
            R3_20      R3_20    1.739 MiB    Yes     1    20.034 GiB
            R3_21      R3_21    1.739 MiB    Yes     1   349.642 MiB
            R3_22      R3_22    1.739 MiB    Yes     1   349.642 MiB
            R3_23      R3_23    1.739 MiB    Yes     1   349.642 MiB
            R3_24      R3_24    1.739 MiB    Yes     1   349.642 MiB
            R3_25      R3_25    1.739 MiB    Yes     1   349.642 MiB
            R3_26      R3_26    1.739 MiB    Yes     1   349.642 MiB
            R3_27      R3_27    1.739 MiB    Yes     1   349.642 MiB
            R3_28      R3_28    1.739 MiB    Yes     1   349.642 MiB
            R3_29      R3_29    1.739 MiB    Yes     1   349.642 MiB
           R3_2_1     R3_2_1    1.697 MiB    Yes     1   254.523 MiB
           R3_2_2     R3_2_2    1.697 MiB     No     1         0   B
             R3_3       R3_3    1.739 MiB    Yes     1    18.023 GiB
            R3_30      R3_30    1.739 MiB    Yes     1   349.642 MiB
            R3_31      R3_31    1.739 MiB     No     1         0   B
            R3_32      R3_32    1.739 MiB     No     1         0   B
             R3_4       R3_4    1.739 MiB    Yes     1    18.231 GiB
             R3_5       R3_5    1.739 MiB    Yes     1    18.439 GiB
           R3_5_1     R3_5_1    1.739 MiB    Yes     1   260.902 MiB
           R3_5_2     R3_5_2    1.739 MiB     No     1         0   B
             R3_6       R3_6    1.739 MiB    Yes     1    18.646 GiB
             R3_7       R3_7    1.739 MiB    Yes     1    18.854 GiB
           R3_7_1     R3_7_1    1.697 MiB    Yes     1   127.300 MiB
             R3_8       R3_8    1.739 MiB    Yes     1    19.062 GiB
           R3_8_1     R3_8_1    1.656 MiB    Yes     1   248.330 MiB
           R3_8_2     R3_8_2    1.656 MiB     No     1         0   B
             R3_9       R3_9    1.739 MiB    Yes     1    19.270 GiB
       T(abc,ijk)     T3FILE    1.739 MiB    Yes     1   940.703 MiB
     T(abcd,ijkl)          -   99.992 MiB     No     1         0   B
             T3_1       T3_1    1.739 MiB    Yes     1    52.165 MiB
             T3_2       T3_2    1.739 MiB    Yes     1    26.082 MiB
             T3_3       T3_3    1.739 MiB    Yes     1    26.082 MiB
             T3_4       T3_4    1.739 MiB    Yes     1    26.082 MiB
             T3_5       T3_5    1.739 MiB    Yes     1    26.082 MiB
       W(abc,ije)    WABCIJE   33.476 MiB    Yes     1     8.859 GiB
       W(abm,ijk)    WABMIJK  578.391 KiB    Yes     1   153.070 MiB
       X(abc,ije)    XABCIJE   33.476 MiB    Yes     1     7.768 GiB
       X(abm,ijk)    XABMIJK  578.391 KiB    Yes     1   131.127 MiB
       X(mnd,jkl)    XMNDJKL   75.656 KiB     No     1         0   B
       Z(abc,ijk)     Z3FILE    1.739 MiB    Yes     1   286.906 MiB
     Z(abcd,ijkl)          -   99.992 MiB     No     1         0   B
             Z3_1       Z3_1    1.739 MiB    Yes     1    52.165 MiB
             Z3_2       Z3_2    1.739 MiB    Yes     1    52.165 MiB
             Z3_3       Z3_3    1.739 MiB    Yes     1    52.165 MiB
             Z3_4       Z3_4    1.739 MiB    Yes     1    52.165 MiB
             Z3_5       Z3_5    1.739 MiB    Yes     1    52.165 MiB

Simulation and memory analysis took 17.879 seconds

MP2 correlation energy:  -0.318128677032715

Non-iterative calculation of MP2 took 0.005 cpu seconds and 0.000 walltime seconds at 0.814 Gflops/sec

Total MP2 energy: -109.278350300758717

Beginning iterative solution of CC4 equations:

It.  Correlation Energy T1 Residual T2 Residual T3 Residual CPU Time (s) Walltime (s)
-------------------------------------------------------------------------------------
  1  -0.334050973304042 1.98617e-03 2.91301e-03 2.40328e-04      185.787        9.357
  2  -0.335669881482608 3.34793e-04 4.98214e-04 3.16847e-05      182.599        9.152
  3  -0.335944166033603 8.92179e-06 5.00708e-05 4.40631e-06      179.851        9.014
  4  -0.335960283641337 2.08574e-06 1.31380e-06 4.03353e-07      178.528        8.947
  5  -0.335960124171126 8.52323e-08 8.59508e-08 4.20810e-08      180.880        9.066

   A    I                     A    I                     A    I                  
-------------------------- -------------------------- -------------------------- 
  11    5 -0.0180276921553   37    7  0.0092861145167   17    4  0.0048624955996 
  30    7  0.0175763982879   32    4 -0.0082719440150    8    4 -0.0039966682335 
  29    6  0.0175763982857   14    5 -0.0080712020898   42    3 -0.0037019311052 
  21    4  0.0100517674442   13    7  0.0073586649233   31    5  0.0033369130764 
  36    6  0.0092861145175   12    6  0.0073586649186   11    3 -0.0028382963072 

   A    B    I    J                     A    B    I    J                  
------------------------------------ ------------------------------------ 
   9    9    6    6 -0.0627943310896    9   10    6    7 -0.0406814618445 
  10   10    7    7 -0.0627943310840   10    9    7    6 -0.0406814618445 
  15    9    6    6 -0.0571573064164    9   16    6    7 -0.0367556158177 
   9   15    6    6 -0.0571573064164   16    9    7    6 -0.0367556158177 
  16   10    7    7 -0.0571573064146   15   10    6    7 -0.0367556158147 
  10   16    7    7 -0.0571573064146   10   15    7    6 -0.0367556158147 
  16   16    7    7 -0.0529607658493   15   16    6    7 -0.0340080145347 
  15   15    6    6 -0.0529607658475 

It.  Correlation Energy T1 Residual T2 Residual T3 Residual CPU Time (s) Walltime (s)
-------------------------------------------------------------------------------------

CC4 iterations converged in 5 cycles and 45.536 seconds (9.107 s/it.) at 1.081 Gflops/sec

Total CC4 energy: -109.296181747897123

             _
Formation of H took 1.028 seconds at 0.252 Gflops/sec

Searching for 1 roots in irrep 1

EOMEE-CCSD guess vector:

   A    I                  
-------------------------- 
  11    5  1.0000000000000 

Beginning iterative solution of EOMEE-CC4 equations:

It.  Correlation Energy R1 Residual R2 Residual R3 Residual CPU Time (s) Walltime (s)
-------------------------------------------------------------------------------------
  1   0.634657122253956 2.01884e-02 8.45757e-02 3.18403e-03      316.385       15.857
  2   0.521197965839070 4.35377e-02 4.05751e-02 5.28002e-03      314.184       15.747
  3   0.494309110583955 1.22104e-02 8.51921e-03 4.82119e-03      310.583       15.566
  4   0.493149328401648 2.36940e-02 3.88270e-03 2.20101e-03      312.997       15.687
  5   0.487811538409551 7.99203e-03 5.31364e-03 1.08126e-03      314.398       15.757
  6   0.484341914473149 8.58057e-03 3.53663e-03 1.14115e-03      316.586       15.867
  7   0.484716983715185 3.31227e-03 2.11311e-03 5.39651e-04      319.336       16.005
  8   0.484576172166351 1.64533e-03 1.50269e-03 3.78812e-04      320.474       16.061
  9   0.483908701095180 1.31585e-03 7.95130e-04 1.68149e-04      327.871       17.072
Locking on root: 0.483909927650113
 10   0.483909927650113 7.38729e-04 3.27913e-04 9.48513e-05      329.476       16.513
 11   0.484088169613435 4.14928e-04 1.93348e-04 4.99830e-05      337.261       16.903
 12   0.484067034106826 1.65366e-04 1.33876e-04 3.13404e-05      341.720       17.126
 13   0.484038446488590 1.23761e-04 6.89502e-05 1.77734e-05      349.273       17.505
 14   0.484034980182075 4.11719e-05 2.82111e-05 8.84475e-06      351.637       17.624
 15   0.484035020010175 2.48007e-05 1.77667e-05 4.41446e-06      357.693       17.927
 16   0.484029247714334 1.55115e-05 1.13006e-05 2.87164e-06      357.516       17.918
 17   0.484027451153396 9.24632e-06 7.30316e-06 2.25272e-06      369.341       18.511

EOMEE-CC4 iterations converged in 17 cycles and 283.646 seconds (16.685 s/it.) at 1.161 Gflops/sec

EOMEE-CC4 excitation energy:   0.484027451153395 ( 13.171056549459799 eV)
Total EOMEE-CC4 energy:      -108.812154296743728

Converged root:

   A    I                     A    I                     A    I                  
-------------------------- -------------------------- -------------------------- 
  11    5 -0.6041302834512   31    5  0.0245507246180   26    4  0.0083891148828 
  14    5 -0.2594325473332   30    7  0.0244908690739   37    7  0.0060678087101 
  13    7  0.0619942465086   29    6  0.0244908690664   36    6  0.0060678087099 
  12    6  0.0619942464391   20    5  0.0240117940910   42    5  0.0057974321636 
   8    4 -0.0277796126106   11    3 -0.0128047106706   35    5  0.0056136108825 

   A    B    I    J                     A    B    I    J                  
------------------------------------ ------------------------------------ 
  11   11    5    5 -0.0928638167570   15   11    6    4 -0.0503128482163 
  11   10    4    7 -0.0563581533191   10   11    4    7 -0.0339764678965 
  10   11    7    4 -0.0563581533191   11   10    7    4 -0.0339764678965 
  11    9    4    6 -0.0563581533186    9   11    4    6 -0.0339764678941 
   9   11    6    4 -0.0563581533186   11    9    6    4 -0.0339764678941 
  11   16    4    7 -0.0503128482204   14   11    5    5 -0.0335400286238 
  16   11    7    4 -0.0503128482204   11   14    5    5 -0.0335400286238 
  11   15    4    6 -0.0503128482163 

Searching for 2 roots in irrep 2

EOMEE-CCSD guess vector:

   A    I                  
-------------------------- 
  13    5  1.0000000000000 

Beginning iterative solution of EOMEE-CC4 equations:

It.  Correlation Energy R1 Residual R2 Residual R3 Residual CPU Time (s) Walltime (s)
-------------------------------------------------------------------------------------
  1   0.630183856061934 3.14890e-02 5.85379e-02 3.38529e-03      303.161       15.194
  2   0.519234606202055 2.09370e-02 2.16082e-02 4.32199e-03      301.255       15.098
  3   0.497084519697921 1.26844e-02 4.56050e-03 2.77816e-03      301.821       15.127
  4   0.496331464817318 6.45641e-03 2.34560e-03 1.21887e-03      303.533       15.213
  5   0.494116051860518 2.30328e-03 2.46761e-03 4.01703e-04      305.093       15.291
  6   0.493060437708936 6.84179e-03 1.28805e-03 7.05849e-04      308.032       15.438
  7   0.493368139350129 3.89835e-03 1.87777e-03 6.33974e-04      309.711       15.522
  8   0.490338890096632 7.20306e-03 3.96219e-03 1.88726e-03      313.756       15.725
  9   0.485017156301118 5.89016e-03 3.66445e-03 9.11361e-04      317.106       15.893
 10   0.484370676183354 6.87231e-03 1.84475e-03 7.96472e-04      323.465       16.212
 11   0.483707270898745 7.38519e-03 1.18747e-03 4.31098e-04      328.730       16.476
 12   0.483623474525380 4.44393e-03 1.20232e-03 5.00307e-04      333.830       16.731
 13   0.482581797091697 3.17583e-03 8.56801e-04 4.00102e-04      338.374       16.959
Locking on root: 0.482542932266303
 14   0.482542932266303 1.05382e-03 5.69465e-04 1.48810e-04      342.172       17.149
 15   0.482522794771862 5.40283e-04 3.23439e-04 9.30109e-05      348.456       17.464
 16   0.482394260098207 2.25278e-04 1.24222e-04 6.33502e-05      354.982       17.791
 17   0.482429524331567 1.55917e-04 7.48336e-05 4.42315e-05      359.872       18.036
 18   0.482435910475736 4.34060e-05 4.43536e-05 1.91460e-05      366.493       18.368
 19   0.482445126706052 3.24307e-05 2.70429e-05 7.95192e-06      377.259       18.908
Compacting subspace
 20   0.482434141919667 1.18266e-05 1.34177e-05 4.99662e-06      425.375       21.319
 21   0.482436520527937 9.99355e-06 7.79833e-06 3.30227e-06      329.673       16.523

EOMEE-CC4 iterations converged in 21 cycles and 350.436 seconds (16.687 s/it.) at 1.090 Gflops/sec

EOMEE-CC4 excitation energy:   0.482436520527941 ( 13.127765126247763 eV)
Total EOMEE-CC4 energy:      -108.813745227369182

Converged root:

   A    I                     A    I                     A    I                  
-------------------------- -------------------------- -------------------------- 
  10    4 -0.4599876369801   18    6  0.0495581969539   38    7 -0.0167529992790 
  13    5  0.3283064498333   30    5  0.0304701469871   39    6 -0.0167529992789 
  16    4 -0.2091870115022   28    4 -0.0248054557037   34    4 -0.0157358506756 
  11    7  0.0695651433621   20    7  0.0226748809029   37    5  0.0154708674467 
  19    7  0.0495581969626   13    3  0.0176221307924   31    7 -0.0105273528579 

   A    B    I    J                     A    B    I    J                  
------------------------------------ ------------------------------------ 
  10   10    5    7 -0.1609591009771    9   10    6    5 -0.0817104151068 
  10   10    7    5 -0.1609591009771   10    9    5    6 -0.0817104151068 
  10   16    7    5 -0.1112884777996   16   16    7    5 -0.0677835904614 
  16   10    5    7 -0.1112884777996   16   16    5    7 -0.0677835904614 
  16   10    7    5 -0.1088805268302   10   15    6    5 -0.0658894983306 
  10   16    5    7 -0.1088805268302   15   10    5    6 -0.0658894983306 
  10    9    6    5 -0.0831247578239   15   10    6    5 -0.0647205862750 
   9   10    5    6 -0.0831247578239 

EOMEE-CCSD guess vector:

   A    I                  
-------------------------- 
  11    7  1.0000000000000 

Beginning iterative solution of EOMEE-CC4 equations:

It.  Correlation Energy R1 Residual R2 Residual R3 Residual CPU Time (s) Walltime (s)
-------------------------------------------------------------------------------------
  1   0.638719481267268 8.53198e-02 3.50051e-02 4.70173e-03      307.999       15.437
  2   0.537587549422955 2.23043e-02 5.78337e-03 5.53983e-03      310.092       15.541
  3   0.530765173841717 3.12324e-02 3.49894e-03 1.56552e-03      309.108       15.492
  4   0.527651866788602 1.14553e-02 4.17868e-03 1.65595e-03      312.983       15.686
  5   0.522964152119482 6.05164e-03 2.19263e-03 9.02830e-04      313.780       15.726
  6   0.522285994826180 3.59056e-03 1.22885e-03 3.99491e-04      314.885       15.781
  7   0.522717556485520 2.79651e-03 6.92070e-04 2.25660e-04      317.925       15.934
Locking on root: 0.522716522798365
  8   0.522716522798365 4.17918e-03 6.00903e-04 1.99234e-04      321.040       16.090
  9   0.521613786827793 7.10700e-03 2.55619e-03 6.52990e-04      325.052       16.292
 10   0.523380742011416 2.48680e-03 1.37288e-03 5.18696e-04      329.342       16.506
 11   0.522798724156807 3.72780e-04 4.50561e-04 1.16117e-04      332.866       16.682
 12   0.522807537056703 1.53961e-04 2.16234e-04 5.38363e-05      340.277       17.054
 13   0.522868113329497 1.16082e-04 1.08353e-04 2.34665e-05      342.802       17.181
 14   0.522853651246274 7.38444e-05 6.38838e-05 1.85561e-05      348.745       17.478
 15   0.522837344878703 3.18840e-05 3.66878e-05 1.08325e-05      358.865       17.986
 16   0.522850655735573 2.60320e-05 1.74703e-05 6.09690e-06      361.267       18.106
 17   0.522852529806330 1.42778e-05 1.11766e-05 3.59518e-06      368.109       18.449
 18   0.522847854398271 7.41958e-06 5.37451e-06 2.10111e-06      374.488       18.768

EOMEE-CC4 iterations converged in 18 cycles and 300.190 seconds (16.677 s/it.) at 1.084 Gflops/sec

EOMEE-CC4 excitation energy:   0.522847854398265 ( 14.227413425898556 eV)
Total EOMEE-CC4 energy:      -108.773333893498858

Converged root:

   A    I                     A    I                     A    I                  
-------------------------- -------------------------- -------------------------- 
  11    7  0.6004955900782   10    4  0.0228778901718   23    5 -0.0050085865627 
  14    7  0.3120658340242   16    4  0.0093380794604   30    3  0.0027508510431 
  13    5 -0.0652868225915   35    7 -0.0081603021031   37    5 -0.0022996173075 
  31    7 -0.0418279265772   30    5 -0.0081582035625   42    7 -0.0018924049715 
  20    7 -0.0323091083006   13    3  0.0065852800867   34    4 -0.0018833384503 

   A    B    I    J                     A    B    I    J                  
------------------------------------ ------------------------------------ 
  11   11    7    5  0.0396983394341   10   11    4    5  0.0280604467114 
  11   11    5    7  0.0396983394341   11   10    5    4  0.0280604467114 
  13   11    7    7  0.0364736737751   16   11    5    4  0.0251652102687 
  11   13    7    7  0.0364736737751   11   16    4    5  0.0251652102687 
  11   10    4    5  0.0296870603923   11   31    7    5 -0.0248237030878 
  10   11    5    4  0.0296870603923   31   11    5    7 -0.0248237030878 
  12   11    6    7  0.0295159767580   13   14    7    7  0.0241496942900 
  11   12    7    6  0.0295159767580 

Searching for 2 roots in irrep 5

EOMEE-CCSD guess vector:

   A    I                  
-------------------------- 
   8    5  1.0000000000000 

Beginning iterative solution of EOMEE-CC4 equations:

It.  Correlation Energy R1 Residual R2 Residual R3 Residual CPU Time (s) Walltime (s)
-------------------------------------------------------------------------------------
  1   0.625226475475033 2.42407e-02 6.02144e-02 3.22441e-03      303.032       15.187
  2   0.513741156880082 4.82251e-02 2.38417e-02 4.07173e-03      304.129       15.242
  3   0.489555669748680 1.51644e-02 5.49021e-03 2.77886e-03      305.208       15.296
  4   0.487104990238360 1.19423e-02 2.74552e-03 1.44660e-03      306.560       15.364
  5   0.483038801292245 3.56763e-03 3.03459e-03 6.15247e-04      308.901       15.481
  6   0.481779377620020 4.95182e-03 1.63285e-03 6.51987e-04      311.711       15.622
  7   0.481997209650044 2.95469e-03 1.82329e-03 3.66532e-04      313.841       15.729
  8   0.481769704361960 2.16798e-03 1.42353e-03 4.99182e-04      316.409       15.858
  9   0.481225830870483 9.15804e-04 7.95295e-04 2.13135e-04      319.467       16.011
 10   0.481279635842251 6.29105e-04 4.71493e-04 1.40400e-04      322.296       16.153
 11   0.481358962238539 2.18141e-04 1.35727e-04 3.70055e-05      326.512       16.364
Locking on root: 0.481383524900976
 12   0.481383524900976 1.50348e-04 6.67389e-05 2.12378e-05      331.835       16.631
 13   0.481372351885480 9.37131e-05 2.13693e-05 9.99801e-06      340.518       17.066
 14   0.481364701261253 4.77214e-05 1.61304e-05 6.19164e-06      342.451       17.163
 15   0.481364715501069 1.70201e-05 8.61507e-06 2.58454e-06      348.173       17.450
 16   0.481364644493225 1.02628e-05 4.85701e-06 1.25061e-06      354.513       17.767
 17   0.481363169603620 4.11930e-06 2.01853e-06 6.45014e-07      360.871       18.086

EOMEE-CC4 iterations converged in 17 cycles and 276.471 seconds (16.263 s/it.) at 1.079 Gflops/sec

EOMEE-CC4 excitation energy:   0.481363169603625 ( 13.098557762723475 eV)
Total EOMEE-CC4 energy:      -108.814818578293497

Converged root:

   A    I                     A    I                     A    I                  
-------------------------- -------------------------- -------------------------- 
   8    5  0.6299619632511   26    5  0.0234365061164   31    4 -0.0084547379347 
  17    5 -0.1476915364954   21    5  0.0222337142598   32    5  0.0076886378448 
  11    4  0.1132840108869    8    3  0.0214487412438   17    3 -0.0064305429561 
  10    7 -0.0936909967969   16    7 -0.0198647776417   34    7 -0.0034369874852 
   9    6 -0.0936909955415   15    6 -0.0198647769965   33    6 -0.0034369874355 

   A    B    I    J                     A    B    I    J                  
------------------------------------ ------------------------------------ 
   8   11    5    5  0.0585167921272    8   15    4    6  0.0512946978692 
  11    8    5    5  0.0585167921272   15    8    6    4  0.0512946978692 
   8    9    4    6  0.0542422295751    8   31    5    5 -0.0366298939820 
   9    8    6    4  0.0542422295751   31    8    5    5 -0.0366298939820 
   8   10    4    7  0.0542422295649    9    8    4    6  0.0321846648859 
  10    8    7    4  0.0542422295649    8    9    6    4  0.0321846648859 
   8   16    4    7  0.0512946978780   10    8    4    7  0.0321846648835 
  16    8    7    4  0.0512946978780 

EOMEE-CCSD guess vector:

   A    I                  
-------------------------- 
  10    7  1.0000000000000 

Beginning iterative solution of EOMEE-CC4 equations:

It.  Correlation Energy R1 Residual R2 Residual R3 Residual CPU Time (s) Walltime (s)
-------------------------------------------------------------------------------------
  1   0.614687174493401 2.14184e-01 2.94606e-02 1.19771e-02      303.934       15.232
  2   0.458718596994362 8.99159e-02 8.62049e-03 5.59476e-03      305.064       15.289
  3   0.407816723280434 4.74354e-02 8.57626e-03 2.99762e-03      308.087       15.441
  4   0.391511125932072 1.20431e-02 3.19089e-03 2.44704e-03      310.289       15.551
  5   0.385460643833381 6.24112e-03 1.87313e-03 7.70284e-04      312.473       15.660
  6   0.383527256173165 3.56611e-03 9.02610e-04 3.59916e-04      315.253       15.800
  7   0.383627472916796 9.09860e-04 8.45189e-04 2.02389e-04      318.545       15.965
  8   0.383719634871457 8.07508e-04 4.49764e-04 1.69948e-04      321.546       16.115
  9   0.383641301460661 1.50315e-04 1.99542e-04 4.66404e-05      324.819       16.279
Locking on root: 0.383608895113623
 10   0.383608895113623 1.03210e-04 1.18568e-04 2.38032e-05      328.610       16.469
 11   0.383619825103935 6.53190e-05 5.33240e-05 1.59465e-05      333.358       16.707
 12   0.383625231050857 2.49949e-05 1.72317e-05 6.97746e-06      337.900       16.935
 13   0.383622487209592 8.20729e-06 5.92817e-06 3.17235e-06      343.703       17.226

EOMEE-CC4 iterations converged in 13 cycles and 208.670 seconds (16.052 s/it.) at 1.082 Gflops/sec

EOMEE-CC4 excitation energy:   0.383622487209593 ( 10.438898580321819 eV)
Total EOMEE-CC4 energy:      -108.912559260687530

Converged root:

   A    I                     A    I                     A    I                  
-------------------------- -------------------------- -------------------------- 
   9    6 -0.4202390408994   27    6 -0.0356336637253   38    4  0.0045539495513 
  10    7  0.4202132831213   34    7  0.0219458501648   25    5 -0.0040118802918 
  16    7  0.2428385773162   33    6 -0.0219455778385   41    5  0.0036019247240 
  15    6 -0.2428317237539   25    3  0.0056621413068   44    6 -0.0027517722012 
  28    7  0.0356361858676   19    4 -0.0050670435105   45    7  0.0027510142024 

   A    B    I    J                     A    B    I    J                  
------------------------------------ ------------------------------------ 
  10   10    4    5  0.0361339276292   15    9    4    5 -0.0248789115859 
  10   10    5    4  0.0361339276292    9   15    5    4 -0.0248789115859 
   9    9    4    5 -0.0361338404459   16   10    4    5  0.0248677108527 
   9    9    5    4 -0.0361338404459   10   16    5    4  0.0248677108527 
   9   15    4    5 -0.0254606836986    9    9    4    3 -0.0221269678572 
  15    9    5    4 -0.0254606836986    9    9    3    4 -0.0221269678572 
  10   16    4    5  0.0254521052309   10   10    4    3  0.0221268402833 
  16   10    5    4  0.0254521052309 

Searching for 1 roots in irrep 7

EOMEE-CCSD guess vector:

   A    I                  
-------------------------- 
   8    6  1.0000000000000 

Beginning iterative solution of EOMEE-CC4 equations:

It.  Correlation Energy R1 Residual R2 Residual R3 Residual CPU Time (s) Walltime (s)
-------------------------------------------------------------------------------------
  1   0.646263856336278 2.57290e-02 5.09315e-02 4.52281e-03      299.650       15.018
  2   0.566942840899654 5.52357e-02 1.97486e-02 3.19635e-03      300.731       15.072
  3   0.549657595972997 1.67789e-02 5.62729e-03 3.08469e-03      301.907       15.131
  4   0.544940392291876 3.33209e-02 3.00521e-03 2.54317e-03      303.739       15.223
  5   0.500947466051698 1.22946e-01 2.02288e-02 9.11942e-03      306.626       15.367
  6   0.371711914902078 1.89061e-02 1.42968e-02 6.45679e-03      307.961       15.434
  7   0.347258514278073 8.38968e-03 4.30154e-03 2.03725e-03      310.973       15.585
  8   0.347007091015546 4.79995e-03 1.74004e-03 8.32584e-04      313.863       15.730
  9   0.346057905730582 1.15133e-03 9.91074e-04 4.12427e-04      317.826       15.929
 10   0.345785542609087 3.78287e-04 3.09836e-04 1.71038e-04      321.659       16.121
 11   0.345826314648025 1.92655e-04 1.86006e-04 7.05778e-05      324.861       16.281
Locking on root: 0.345799165231632
 12   0.345799165231632 8.34621e-05 8.86408e-05 3.38701e-05      329.734       16.525
 13   0.345796022545858 4.01335e-05 3.16834e-05 1.86935e-05      334.854       16.782
 14   0.345784980055474 1.29120e-05 1.49443e-05 7.23416e-06      340.344       17.057
 15   0.345781079469301 6.54708e-06 4.81390e-06 2.18473e-06      346.326       17.357

EOMEE-CC4 iterations converged in 15 cycles and 238.613 seconds (15.908 s/it.) at 1.076 Gflops/sec

EOMEE-CC4 excitation energy:   0.345781079469305 (  9.409181525905115 eV)
Total EOMEE-CC4 energy:      -108.950400668427818

Converged root:

   A    I                     A    I                     A    I                  
-------------------------- -------------------------- -------------------------- 
   9    5  0.5849569698342    8    6 -0.0193746123434   44    5  0.0110880063398 
  15    5  0.3261982065922   21    6 -0.0170544468399   24    7 -0.0109753885180 
  27    5  0.0531778881260   15    3 -0.0164271877095   25    6  0.0109753885166 
  33    5  0.0284673203742   17    6  0.0153260381447   41    6 -0.0086588424614 
  12    4 -0.0219962596957   27    3 -0.0113833321217   40    7  0.0086588424611 

   A    B    I    J                     A    B    I    J                  
------------------------------------ ------------------------------------ 
   9    9    4    6  0.0837856748667    9   16    4    7  0.0442680308262 
   9    9    6    4  0.0837856748667   16    9    7    4  0.0442680308262 
   9   15    4    6  0.0623682484521   15   15    4    6  0.0379095653975 
  15    9    6    4  0.0623682484521   15   15    6    4  0.0379095653975 
  15    9    4    6  0.0554656943931   10    9    4    7  0.0324837628815 
   9   15    6    4  0.0554656943931    9   10    7    4  0.0324837628815 
   9   10    4    7  0.0519746289002    9   21    4    5 -0.0310019935822 
  10    9    7    4  0.0519746289002 

Searching for 2 roots in irrep 8

EOMEE-CCSD guess vector:

   A    I                  
-------------------------- 
   9    7  1.0000000000000 

Beginning iterative solution of EOMEE-CC4 equations:

It.  Correlation Energy R1 Residual R2 Residual R3 Residual CPU Time (s) Walltime (s)
-------------------------------------------------------------------------------------
  1   0.536144482174316 7.60093e-02 4.69810e-02 9.03718e-03      296.349       14.852
  2   0.448785793253503 1.55440e-01 9.90807e-03 3.91794e-03      297.689       14.919
  3   0.394632423727603 1.58903e-02 7.77205e-03 3.24735e-03      298.593       14.965
  4   0.379383566754673 8.91049e-03 1.30364e-03 2.07624e-03      299.873       15.029
  5   0.375987590275044 6.66533e-03 1.41015e-03 5.20857e-04      301.201       15.095
  6   0.375631666724001 6.25908e-03 9.64178e-04 3.74996e-04      304.045       15.238
  7   0.374782617896390 5.85676e-03 1.28984e-03 7.68930e-04      306.087       15.340
  8   0.372475356379185 3.68879e-03 2.57308e-03 1.21538e-03      309.869       15.530
  9   0.370493683503850 7.94696e-04 1.54162e-03 9.10940e-04      313.619       15.718
 10   0.369828110809912 4.49371e-04 7.60782e-04 2.82460e-04      319.949       16.035
Locking on root: 0.369820037151357
 11   0.369820037151357 1.50618e-04 2.37382e-04 1.15197e-04      323.551       16.216
 12   0.369835018359177 4.25988e-05 9.29183e-05 6.97857e-05      328.137       16.446
 13   0.369818028853613 2.20186e-05 3.88655e-05 2.64057e-05      333.061       16.692
 14   0.369817707715754 3.47264e-06 1.49139e-05 1.16869e-05      338.755       16.978
 15   0.369822276349187 1.80924e-06 4.47415e-06 5.52648e-06      344.615       17.271

EOMEE-CC4 iterations converged in 15 cycles and 236.326 seconds (15.755 s/it.) at 1.073 Gflops/sec

EOMEE-CC4 excitation energy:   0.369822276349183 ( 10.063375751598363 eV)
Total EOMEE-CC4 energy:      -108.926359471547940

Converged root:

   A    I                     A    I                     A    I                  
-------------------------- -------------------------- -------------------------- 
  10    6 -0.4175509523487   27    7  0.0417312589458   18    4 -0.0000017753512 
   9    7  0.4175022586238   34    6 -0.0243498929507   24    5  0.0000003453713 
  16    6 -0.2541752785720   33    7  0.0243488611406   40    3  0.0000001765248 
  15    7  0.2541548896117   45    6 -0.0039275027541   39    4 -0.0000001559372 
  28    6 -0.0417328270549   44    7  0.0039261952701   24    3 -0.0000001547948 

   A    B    I    J                     A    B    I    J                  
------------------------------------ ------------------------------------ 
  30   16    6    7  0.0108485798771   10   24    4    7 -0.0106603634147 
  16   30    7    6  0.0108485798771   24   10    7    4 -0.0106603634147 
  15   29    6    7 -0.0108475518805    9   25    4    7  0.0106593526813 
  29   15    7    6 -0.0108475518805   25    9    7    4  0.0106593526813 
  10   25    4    6  0.0106615125492   30   10    6    7  0.0105520848763 
  25   10    6    4  0.0106615125492   10   30    7    6  0.0105520848763 
   9   24    4    6  0.0106605018158    9   29    6    7 -0.0105498656374 
  24    9    6    4  0.0106605018158 

EOMEE-CCSD guess vector:

   A    I                  
-------------------------- 
  10    6  1.0000000000000 

Beginning iterative solution of EOMEE-CC4 equations:

It.  Correlation Energy R1 Residual R2 Residual R3 Residual CPU Time (s) Walltime (s)
-------------------------------------------------------------------------------------
  1   0.620038969805958 2.88317e-01 2.20572e-02 1.06572e-02      300.786       15.075
  2   0.432829136376040 5.89640e-02 8.04195e-03 4.30293e-03      301.161       15.094
  3   0.391574339413185 2.27397e-02 3.03848e-03 2.21216e-03      302.342       15.153
  4   0.386307374304571 5.56602e-03 2.54150e-03 9.63966e-04      304.161       15.244
  5   0.383972843595246 3.45964e-04 7.07194e-04 3.77845e-04      305.197       15.296
  6   0.383519205838091 7.10819e-04 2.14079e-04 1.26604e-04      306.039       15.338
  7   0.383617670828723 1.78047e-04 1.22118e-04 4.57321e-05      309.538       15.513
Locking on root: 0.383631161072496
  8   0.383631161072496 2.20146e-05 4.51209e-05 1.78193e-05      313.396       15.707
  9   0.383621377311373 2.00927e-05 1.51216e-05 7.69609e-06      316.310       15.853
 10   0.383621556815741 7.61162e-06 5.20299e-06 3.34684e-06      322.781       16.177

EOMEE-CC4 iterations converged in 10 cycles and 154.449 seconds (15.445 s/it.) at 1.078 Gflops/sec

EOMEE-CC4 excitation energy:   0.383621556815740 ( 10.438873263017982 eV)
Total EOMEE-CC4 energy:      -108.912560191081383

Converged root:

   A    I                     A    I                     A    I                  
-------------------------- -------------------------- -------------------------- 
   9    7 -0.4202194352325   27    7 -0.0356362545143   39    4 -0.0045540955548 
  10    6 -0.4202127730800   33    7 -0.0219495204920   24    5  0.0040085717174 
  15    7 -0.2428585135767   34    6 -0.0219491455800   40    5 -0.0036019622453 
  16    6 -0.2428529972952   24    3 -0.0056626093867   45    6 -0.0027513828385 
  28    6 -0.0356411185311   18    4  0.0050650532988   44    7 -0.0027493253467 

   A    B    I    J                     A    B    I    J                  
------------------------------------ ------------------------------------ 
   9   10    4    5 -0.0361212174203   16    9    4    5 -0.0248838591184 
  10    9    5    4 -0.0361212174203    9   16    5    4 -0.0248838591184 
  10    9    4    5 -0.0361204468651   15   10    4    5 -0.0248678961337 
   9   10    5    4 -0.0361204468651   10   15    5    4 -0.0248678961337 
   9   16    4    5 -0.0254612408622    9   10    4    3 -0.0221231624497 
  16    9    5    4 -0.0254612408622   10    9    3    4 -0.0221231624497 
  10   15    4    5 -0.0254482192098   10    9    4    3 -0.0221230687891 
  15   10    5    4 -0.0254482192098 

 @CHECKOUT-I, Total execution time (CPU/WALL):    41834.98/    2114.37 seconds.
--executable xncc finished with status     0 in     2116.44 seconds (walltime).
  The final electronic energy is      -108.912560191081383 a.u. 
  This computation required                         2136.09 seconds (walltime).
