 --invoking executable--
/home/CEISAM/blondel-a/soft/cfour2.1/cfour2.1-serial-mkl/bin/xjoda


   *************************************************************************
         <<<     CCCCCC     CCCCCC   |||     CCCCCC     CCCCCC   >>>
       <<<      CCC        CCC       |||    CCC        CCC         >>>
      <<<      CCC        CCC        |||   CCC        CCC            >>>
    <<<        CCC        CCC        |||   CCC        CCC              >>>
      <<<      CCC        CCC        |||   CCC        CCC            >>>
       <<<      CCC        CCC       |||    CCC        CCC         >>>
         <<<     CCCCCC     CCCCCC   |||     CCCCCC     CCCCCC   >>>
   *************************************************************************

     ****************************************************************
     * CFOUR Coupled-Cluster techniques for Computational Chemistry *
     ****************************************************************
 

   Department of Chemistry                Institut fuer Physikalische Chemie
   University of Florida                  Universitaet Mainz
   Gainesville, FL 32611, USA             D-55099 Mainz, Germany

   Department of Chemistry                Fakultaet fuer Chemie und Biowiss.
   Johns Hopkins University               Karlsruher Institut fuer Technologie
   Baltimore, MD 21218, USA               D-76131 Karlsruhe, Germany

   Department of Chemistry                Department of Physical Chemistry
   Southern Methodist University          Eotvos Lorand University
   Dallas, TX 75275, USA                  H-1053 Budapest, Hungary

 
                       Version 2.1
 
                     cribbar053                                        
                     Tue Mar 16 14:29:49 CET 2021                      
                     integer*8 version is running
 
********************************************************************************
*                          Input from ZMAT file                                *
********************************************************************************
Ketene -GS                                                                      
N            0.12804615    -0.00000000     0.00000000                           
H           -0.59303935     0.88580079    -1.53425197                           
H           -0.59303935    -1.77160157    -0.00000000                           
H           -0.59303935     0.88580079     1.53425197                           
                                                                                
*CFOUR(COORD=CARTESIAN,UNITS=BOHR                                               
       MEMORY=250,MEM_UNIT=GB,CC_PROG=NCC                                       
       FROZEN_CORE=1                                                            
       CALC=CCSDT,BASIS=AUG-PVTZ                                                
       SCF_CONV=8,CC_CONV=7,ESTATE_CONV=5,ESTATE_MAXCYC=120                     
       EXCITE=EOMEE,ESTATE_SYM=4/0)                                             
                                                                                
********************************************************************************
    -------------------------------------------------------------------
                    CFOUR Control Parameters 
    -------------------------------------------------------------------
        External           Internal           Value            Units
          Name               Name
    -------------------------------------------------------------------
       ABCDTYPE             IABCDT         STANDARD    [  0]    ***   
       ANHARMONIC           IANHAR         OFF         [  0]    ***   
       ANH_ALGORIT          IANALG         STANDARD    [  0]    ***   
       ANH_DERIVAT          IANDER         SECOND      [  1]    ***   
       ANH_MODE             ANHMOD         VIBRATION   [  0]    ***   
       ANH_STEPSIZ          ICUBST             50000          x 10-6  
       ANH_SYMMETR          IANHSM         ABELIAN     [  0]    ***   
       AO_LADDERS           IAOLAD         SINGLEPASS  [  1]    ***   
       AV_SCF               IAVSCF         OFF         [  0]    ***   
       BASIS                IBASIS         AUG-PVTZ    [ 34]    ***   
       BOTHVECTORS          BOTHVC         OFF         [  0]    ***   
       BOX_POTENT           IPIAB          OFF         [  0]    ***   
       BREIT                IBREIT         OFF         [  0]    ***   
       BRUCK_CONV           IBRTOL          10D-  4             ***   
       BRUECKNER            IBRKNR         OFF         [  0]    ***   
       BUFFERSIZE           IBUFFS              4096            ***   
       CACHE_RECS           ICHREC             10               ***   
       CALCLEVEL            ICLLVL         CCSDT       [ 18]    ***   
       CCORBOPT             ICCORB         OFF         [  0]  x 0.01  
       CC_CONV              ICCCNV          10D-  7             ***   
       CC_EXPORDER          ICCEOR              5               ***   
       CC_EXTRAPOL          ICCEXT         DIIS        [  1]    ***   
       CC_GUESS             ICCGES         MP2         [  0]    ***   
       CC_MAXCYC            ICCCYC            100              cycles 
       CC_PROGRAM           ICCPRO         NCC         [  5]    ***   
       CHARGE               ICHRGE              0               ***   
       CHOLESKY             ICHOLE         OFF         [  0]    ***   
       CIS_CONV             ICISTL              5               ***   
       COMM_SIZE            IPSIZE            ***               ***   
       CONSTANT             ICONST         OLD         [  1]    ***   
       CONTINUUM            ICONTU         NONE        [  0]    ***   
       CONTRACTION          ICNTYP         GENERAL     [  1]    ***   
       COORDINATES          ICOORD         CARTESIAN   [  1]    ***   
       CPHF_CONVER          ICPHFT          10D- 16             ***   
       CPHF_MAXCYC          ICPHFC             64              cycles 
       CUBIC                ICUBIC         OFF         [  0]    ***   
       CURVILINEAR          ICURVY         OFF         [  0]    ***   
       DBOC                 IDBOC          OFF         [  0]    ***   
       DCT                  IDCT           OFF         [  0]    ***   
       DERIV_LEV            IDRLVL         ZERO        [  0]    ***   
       DEVMEM_SIZE          IDVMEM         *********           MByte  
       DIAG_MRCC            IEOMST          10D-  0             ***   
       DIFF_TYPE            IDIFTY         RELAXED     [  0]    ***   
       DIRECT               IDIRCT         OFF         [  0]    ***   
       DROPMO               IDRPMO      NONE         
       ECP                  IECP           OFF         [  0]    ***   
       EIGENVECTOR          IVEC                1               ***   
       EL_ANHARM            IELANH         OFF         [  0]    ***   
       EOMFOLLOW            IEOMSR         ENERGY      [  0]    ***   
       EOMIP                IEOMIP         OFF         [  0]    ***   
       EOMLEVEL             HBARFM         SAME        [  0]    ***   
       EOM_MRCC             IMRCCE         NEW         [  1]    ***   
       EOM_NONIT            EOMNON         OFF         [  0]    ***   
       EOM_NSING            IEOMSI          10D-  0             ***   
       EOM_NSTATES          IMRCCD         DAVIDSON    [  0]    ***   
       EOM_NTRIP            IEOMTR          10D-  0             ***   
       EOM_ORDER            IEXORD         ENERGY      [  0]    ***   
       EOM_PROPSTA          IEOMST              0               ***   
       ESTATE_CONV          IEXTOL          10D-  5             ***   
       ESTATE_DIAG          IEXDIG         ITERATIVE   [  0]    ***   
       ESTATE_LOCK          IESLOC         ON          [  1]    ***   
       ESTATE_MAXC          IEXMXC            120               ***   
       ESTATE_PROP          IEXPRP         OFF         [  0]    ***   
       ESTATE_SYM           IEXSYM   4,  0,
       EVAL_HESS            IRECAL              0            # of cyc.
       EXCITATION           IEXCIT              0               ***   
       EXCITE               IEXCIT         EOMEE       [  3]    ***   
       EXTERN_POT           IEXPOT         OFF         [  0]    ***   
       FCGRADNEW            IFCGNW         OFF         [  0]    ***   
       FC_FIELD             IFINFC              0             x 10-6  
       FD_CALTYPE           IFDCAL         GRADONLY    [  0]    ***   
       FD_PROJECT           IFDPRJ         OFF         [  1]    ***   
       FD_STEPSIZE          IDISFD              0            10-4 bohr
       FD_USEGROUP          IFDGRP         FULL        [  0]    ***   
       FILE_RECSIZ          IFLREC              4096           words  
       FINITE_PERT          IFIPER              0             x 10-6  
       FIXGEOM              IFIXGM         OFF         [  0]    ***   
       FOCK                 IFOCK          AO          [  1]    ***   
       FREQ_ALGORI          IVIALG         STANDARD    [  0]    ***   
       FROZEN_CORE          IFROCO         ON          [  1]    ***   
       GAMMA_ABCD           IGABCD         STORE       [  0]    ***   
       GAMMA_ABCI           IGABCI         STORE       [  0]    ***   
       GENBAS_1             IGNBS1              0               ***   
       GENBAS_2             IGNBS2              0               ***   
       GENBAS_3             IGNBS3              0               ***   
       GENBAS_4             IGNBS4              0               ***   
       GEO_CONV             ICONTL              5              H/bohr 
       GEO_MAXCYC           IOPTCY             50               ***   
       GEO_MAXSTEP          IMXSTP            300            millibohr
       GEO_METHOD           INR            SINGLE_POINT[  5]    ***   
       GIAO                 IGIAO          OFF         [  1]    ***   
       GIMIC                IGIMIC         OFF         [  0]    ***   
       GRID                 IGRID          OFF         [  0]    ***   
       GRID_ALGO            IGALGO         SERIAL      [  0]    ***   
       GUESS                IGUESS         MOREAD      [  0]    ***   
       HBAR                 IHBAR          ON          [  1]    ***   
       HESS_TYPE            IHESTP         SCF         [  0]    ***   
       HF2_FILE             IHF2Fl         USE         [  1]    ***   
       HFSTABILITY          ISTABL         OFF         [  0]    ***   
       INCORE               INCORE         OFF         [  0]    ***   
       INPUT_MRCC           IMRCC          ON          [  1]    ***   
       INTEGRALS            INTTYP         VMOL        [  1]    ***   
       JODA_PRINT           IJPRNT              0               ***   
       KEYWORD_OUT          IDMPKW         NO          [  0]    ***   
       LINDEP_TOL           ILINDP              8               ***   
       LINEQ_CONV           IZTACN          10D-  7           cycles  
       LINEQ_EXPOR          ILMAXD              5               ***   
       LINEQ_MAXCY          ILMAXC            100               ***   
       LINEQ_TYPE           ILTYPE         DIIS        [  1]    ***   
       LOCK_ORBOCC          ILOCOC         OFF         [  0]    ***   
       MEMORY_SIZE          IMEMSZ         *********           words  
       MEM_UNIT             IMEMU          GB          [  3]    ***   
       MRCC                 IMRCCC         OFF         [  0]    ***   
       MULTIPLICTY          IMULTP              1               ***   
       NACOUPLING           IVCOUP         OFF         [  0]    ***   
       NEGEVAL              IDIE           ABORT       [  0]    ***   
       NEWNORM              INEWNO         OFF         [  0]    ***   
       NON-HF               INONHF         OFF         [  0]    ***   
       NTOP_TAMP            ITOPT2             15               ***   
       NUC_MODEL            INUCMO         POINT       [  0]    ***   
       OCCUPATION           IOCCU   ESTIMATED BY SCF 
       OPEN-SHELL           IOPEN          SPIN-ORBITAL[  0]    ***   
       OPTVIB               IOPTVB         OFF         [  0]    ***   
       ORBITALS             IORBTP         STANDARD    [  0]    ***   
       PARALLEL             IPARAL         ON          [  1]    ***   
       PARA_INT             IPINTS         ON          [  1]    ***   
       PARA_PRINT           IPPRIN              0               ***   
       PERT_ORB             IPTORB         STANDARD    [  0]    ***   
       POINTS               IGRDFD              0               ***   
       PRINT                IPRNT               0               ***   
       PROPS                IPROPS         OFF         [  0]    ***   
       PROP_INTEGR          IINTYP         INTERNAL    [  0]    ***   
       PSI                  IPSI           OFF         [  0]    ***   
       QC_ALG               IQCALG         FLM         [  0]    ***   
       QC_LINALG            IQCLIN         TRIDIAG     [  2]    ***   
       QC_MAXCYC            IQCMAX          10D-100           cycles  
       QC_MAXSCFCY          IQCMSC          10D- 15           cycles  
       QC_RTRUST            IQCRTR          10D-  0           x 10-3  
       QC_SKIPSCF           IQCSKI         OFF         [  0]    ***   
       QC_START             IQCSTA          10D-  1             ***   
       QRHFGUESS            IQGUES         OFF         [  0]    ***   
       QUARTIC              IQUART         OFF         [  0]    ***   
       RAMAN_INT            IRAMIN         OFF         [  0]    ***   
       RAMAN_ORB            IRAMRE         UNRELAXED   [  0]    ***   
       RDO                  IRDOFM         OFF         [  0]    ***   
       REDUCE_REPR          REDREP         Ir          [  0]    ***   
       REFERENCE            IREFNC         RHF         [  0]    ***   
       RELATIVIST           IRELAT         OFF         [  0]    ***   
       RELAX_DENS           IRDENS         OFF         [  0]    ***   
       RESET_FLAGS          IRESET         OFF         [  0]    ***   
       RESTART_CC           ICCRES         OFF         [  0]    ***   
       ROT_EVEC             ROTVEC              0               ***   
       SAVE_INTS            ISVINT         OFF         [  0]    ***   
       SCALE_ON             ISTCRT              0               ***   
       SCF_CONV             ISCFCV          10D-  8             ***   
       SCF_DAMPING          IDAMP               0             x 10-3  
       SCF_EXPORDE          IRPPOR              6               ***   
       SCF_EXPSTAR          IRPPLS              8               ***   
       SCF_EXTRAPO          IRPP           ON          [  1]    ***   
       SCF_MAXCYC           ISCFCY            150              cycles 
       SCF_NOSTOP           ISCFST         OFF         [  0]    ***   
       SCF_PRINT            ISCFPR              0               ***   
       SCF_PROG             ISCFPR         SCF         [  0]    ***   
       SD_FIELD             IFINSD              0             x 10-6  
       SOPERT               IPERSO         OFF         [  0]    ***   
       SPHERICAL            IDFGHI         ON          [  1]    ***   
       SPINORBIT            ISOCAL         OFF         [  0]    ***   
       SPINROTATIO          ISRCON         OFF         [  0]    ***   
       SPIN_FLIP            ISPFLP         OFF         [  0]    ***   
       SPIN_ORBIT           ISPORB         OFF         [  0]    ***   
       SPIN_SCAL            ISCSMP         OFF         [  0]    ***   
       STEEPSCALE           ISTPSC              1000          x 10-3  
       SUBGROUP             ISUBGP         DEFAULT     [  0]    ***   
       SUBGRPAXIS           ISBXYZ         X           [  0]    ***   
       SYMMETRY             ISYM           ON          [  0]    ***   
       SYM_CHECK            ISYMCK         OVERRIDE    [  1]    ***   
       T3_EXTRAPOL          IT3EXT         OFF         [  0]    ***   
       T4_EXTRAPOL          IT4EXP         OFF         [  0]    ***   
       TAMP_SUM             IEVERY              5               ***   
       TESTSUITE            ITESTS         OFF         [  0]    ***   
       THERMOCH             ITHERM         OFF         [  0]    ***   
       TOL_CHOLESK          ITOLCH          10D-  4             ***   
       TRANGRAD             IRESRM         OFF         [  0]    ***   
       TRANS_INV            ITRAIN         USE         [  0]    ***   
       TREAT_PERT           ITREAT         SIMULTANEOUS[  0]    ***   
       TRIP_ALGORI          ITRALG         NORMAL      [  0]    ***   
       UIJ_THRESHO          IUIJTH              1               ***   
       UNITS                IUNITS         BOHR        [  1]    ***   
       UNOS                 IUNOS          OFF         [  0]    ***   
       UPDATE_HESS          IHUPDT         ON          [  1]    ***   
       VIBPHASE             ISETPH         STANDARD    [  0]    ***   
       VIBRATION            IVIB           NO          [  0]    ***   
       VIB_ALGORIT          IGEALG         STANDARD    [  0]    ***   
       VNATORB              IVNORB         OFF         [  0]    ***   
       VTRAN                IVTRAN         FULL/PARTIAL[  0]    ***   
       XFIELD               IXEFLD              0             x 10-6  
       XFORM_TOL            IXFTOL          10D- 11             ***   
       YFIELD               IYEFLD              0             x 10-6  
       ZFIELD               IZEFLD              0             x 10-6  
       ZSCALE_EXP           IZEXPS         OFF         [  0]    ***   
    -------------------------------------------------------------------
  @GETXYZ-I,     4 atoms read from ZMAT.
   Rotational constants (in cm-1): 
          6.3438946034             9.9707496147             9.9707496362
   Rotational constants (in MHz): 
     190185.2022875074        298915.5953860913        298915.5960318497
********************************************************************************
   The full molecular point group is C s .
   The largest Abelian subgroup of the full molecular point group is C s .
   The computational point group is C s .
********************************************************************************


 ----------------------------------------------------------------
         Coordinates used in calculation (QCOMP) 
 ----------------------------------------------------------------
 Z-matrix   Atomic            Coordinates (in bohr)
  Symbol    Number           X              Y              Z
 ----------------------------------------------------------------
     N         7         0.00000000     0.12804615     0.00000000
     H         1        -0.88580079    -0.59303935    -1.53425197
     H         1         1.77160157    -0.59303935     0.00000000
     H         1        -0.88580079    -0.59303935     1.53425197
 ----------------------------------------------------------------
 
   Interatomic distance matrix (Angstroms) 
 
                 N             H             H             H    
                [ 1]        [ 2]        [ 3]        [ 4]
  N    [ 1]     0.00000
  H    [ 2]     1.01217     0.00000
  H    [ 3]     1.01217     1.62378     0.00000
  H    [ 4]     1.01217     1.62378     1.62378     0.00000
 rotcon2
   Rotational constants (in cm-1): 
          9.9707496147             6.3438946034             9.9707496362
   Rotational constants (in MHz): 
     298915.5953860913        190185.2022875074        298915.5960318497
  There is   1 frozen-core orbital.
  There are  115 basis functions.
 @GEOPT-W, Archive file not created for single-point calculation.
 @CHECKOUT-I, Total execution time (CPU/WALL):        0.19/       4.99 seconds.
--executable xjoda finished with status     0 in        6.68 seconds (walltime).
 --invoking executable--
/home/CEISAM/blondel-a/soft/cfour2.1/cfour2.1-serial-mkl/bin/xvmol
 SERIAL VERSION OF MOLECULE STARTED
********************************************************************************
                    INPUT FROM MOL FILE
********************************************************************************
INTGRL        1    0    1    0    0    0    0    0    0                         
         *** CFOUR Program System (Release V0.1) ***                            
Ketene -GS                                                                      
    3    1 Z          0.10E-08              0    0                              
   9999.00      3.00                                                            
          7.00000000    1    4    1    1    1    1                              
N #1   0.000000000813628   0.128046149817296   0.000000000000000                
   11    5                                                                      
   11420.0000000000       5.230000000000000E-004 -1.150000000000000E-004        
  0.000000000000000E+000  0.000000000000000E+000  0.000000000000000E+000        
   1712.00000000000       4.045000000000000E-003 -8.950000000000000E-004        
  0.000000000000000E+000  0.000000000000000E+000  0.000000000000000E+000        
   389.300000000000       2.077500000000000E-002 -4.624000000000000E-003        
  0.000000000000000E+000  0.000000000000000E+000  0.000000000000000E+000        
   110.000000000000       8.072699999999999E-002 -1.852800000000000E-002        
  0.000000000000000E+000  0.000000000000000E+000  0.000000000000000E+000        
   35.5700000000000       0.233074000000000      -5.733900000000000E-002        
  0.000000000000000E+000  0.000000000000000E+000  0.000000000000000E+000        
   12.5400000000000       0.433501000000000      -0.132076000000000             
  0.000000000000000E+000  0.000000000000000E+000  0.000000000000000E+000        
   4.64400000000000       0.347472000000000      -0.172510000000000             
  0.000000000000000E+000  0.000000000000000E+000  0.000000000000000E+000        
   1.29300000000000       4.126200000000000E-002  0.151814000000000             
   1.00000000000000       0.000000000000000E+000  0.000000000000000E+000        
  0.511800000000000      -8.508000000000000E-003  0.599944000000000             
  0.000000000000000E+000  0.000000000000000E+000  0.000000000000000E+000        
  0.178700000000000       2.384000000000000E-003  0.387462000000000             
  0.000000000000000E+000   1.00000000000000       0.000000000000000E+000        
  5.760000000000000E-002  0.000000000000000E+000  0.000000000000000E+000        
  0.000000000000000E+000  0.000000000000000E+000   1.00000000000000             
    6    4                                                                      
   26.6300000000000       1.467000000000000E-002  0.000000000000000E+000        
  0.000000000000000E+000  0.000000000000000E+000                                
   5.94800000000000       9.176400000000000E-002  0.000000000000000E+000        
  0.000000000000000E+000  0.000000000000000E+000                                
   1.74200000000000       0.298683000000000       0.000000000000000E+000        
  0.000000000000000E+000  0.000000000000000E+000                                
  0.555000000000000       0.498487000000000        1.00000000000000             
  0.000000000000000E+000  0.000000000000000E+000                                
  0.172500000000000       0.337023000000000       0.000000000000000E+000        
   1.00000000000000       0.000000000000000E+000                                
  4.910000000000000E-002  0.000000000000000E+000  0.000000000000000E+000        
  0.000000000000000E+000   1.00000000000000                                     
    3    3                                                                      
   1.65400000000000        1.00000000000000       0.000000000000000E+000        
  0.000000000000000E+000                                                        
  0.469000000000000       0.000000000000000E+000   1.00000000000000             
  0.000000000000000E+000                                                        
  0.151000000000000       0.000000000000000E+000  0.000000000000000E+000        
   1.00000000000000                                                             
    2    2                                                                      
   1.09300000000000        1.00000000000000       0.000000000000000E+000        
  0.364000000000000       0.000000000000000E+000   1.00000000000000             
          1.00000000    1    3    1    1    1                                   
H #2  -0.885800790434946  -0.593039348648921  -1.534251970000000                
    6    4                                                                      
   33.8700000000000       6.068000000000000E-003  0.000000000000000E+000        
  0.000000000000000E+000  0.000000000000000E+000                                
   5.09500000000000       4.530800000000000E-002  0.000000000000000E+000        
  0.000000000000000E+000  0.000000000000000E+000                                
   1.15900000000000       0.202822000000000       0.000000000000000E+000        
  0.000000000000000E+000  0.000000000000000E+000                                
  0.325800000000000       0.503903000000000        1.00000000000000             
  0.000000000000000E+000  0.000000000000000E+000                                
  0.102700000000000       0.383421000000000       0.000000000000000E+000        
   1.00000000000000       0.000000000000000E+000                                
  2.526000000000000E-002  0.000000000000000E+000  0.000000000000000E+000        
  0.000000000000000E+000   1.00000000000000                                     
    3    3                                                                      
   1.40700000000000        1.00000000000000       0.000000000000000E+000        
  0.000000000000000E+000                                                        
  0.388000000000000       0.000000000000000E+000   1.00000000000000             
  0.000000000000000E+000                                                        
  0.102000000000000       0.000000000000000E+000  0.000000000000000E+000        
   1.00000000000000                                                             
    2    2                                                                      
   1.05700000000000        1.00000000000000       0.000000000000000E+000        
  0.247000000000000       0.000000000000000E+000   1.00000000000000             
          1.00000000    1    3    1    1    1                                   
H #3   1.771601569565054  -0.593039353250269   0.000000000000000                
    6    4                                                                      
   33.8700000000000       6.068000000000000E-003  0.000000000000000E+000        
  0.000000000000000E+000  0.000000000000000E+000                                
   5.09500000000000       4.530800000000000E-002  0.000000000000000E+000        
  0.000000000000000E+000  0.000000000000000E+000                                
   1.15900000000000       0.202822000000000       0.000000000000000E+000        
  0.000000000000000E+000  0.000000000000000E+000                                
  0.325800000000000       0.503903000000000        1.00000000000000             
  0.000000000000000E+000  0.000000000000000E+000                                
  0.102700000000000       0.383421000000000       0.000000000000000E+000        
   1.00000000000000       0.000000000000000E+000                                
  2.526000000000000E-002  0.000000000000000E+000  0.000000000000000E+000        
  0.000000000000000E+000   1.00000000000000                                     
    3    3                                                                      
   1.40700000000000        1.00000000000000       0.000000000000000E+000        
  0.000000000000000E+000                                                        
  0.388000000000000       0.000000000000000E+000   1.00000000000000             
  0.000000000000000E+000                                                        
  0.102000000000000       0.000000000000000E+000  0.000000000000000E+000        
   1.00000000000000                                                             
    2    2                                                                      
   1.05700000000000        1.00000000000000       0.000000000000000E+000        
  0.247000000000000       0.000000000000000E+000   1.00000000000000             
FINISH                                                                          
 
********************************************************************************
 ONE- AND TWO-ELECTRON INTEGRALS OVER SYMMETRY-ADAPTED AOS ARE CALCULATED.

  SPHERICAL HARMONICS ARE USED.
  
  INTEGRALS LESS THAN  0.10E-13 ARE NEGLECTED.

  NUCLEAR REPULSION ENERGY :   11.9567463556 A.U.
  @MOLECU-I, ONE ELECTRON INTEGRALS (CPU/WALL):        0.04/       0.07 SECONDS.
  @TWOEL-I,    3342951 INTEGRALS OF SYMMETRY TYPE  I I I I
  @TWOEL-I,    4833618 INTEGRALS OF SYMMETRY TYPE  I J I J
  @TWOEL-I,    2499632 INTEGRALS OF SYMMETRY TYPE  I I J J
  @TWOEL-I, TOTAL NUMBER OF 2-E INTEGRALS   10676201.
  @MOLECU-I, TWO ELECTRON INTEGRALS (CPU/WALL):       57.04/       3.97 SECONDS.
 @CHECKOUT-I, Total execution time (CPU/WALL):       57.09/       4.07 seconds.

Running with 20 threads/proc

--executable xvmol finished with status     0 in        5.30 seconds (walltime).
 --invoking executable--
/home/CEISAM/blondel-a/soft/cfour2.1/cfour2.1-serial-mkl/bin/xvmol2ja
 @GETMEM-I,  Allocated  238418 MB of main memory.
 @CHECKOUT-I, Total execution time (CPU/WALL):        0.22/       0.07 seconds.
--executable xvmol2ja finished with status     0 in        1.08 seconds (walltime).
 --invoking executable--
/home/CEISAM/blondel-a/soft/cfour2.1/cfour2.1-serial-mkl/bin/xvscf
  There are  115 functions in the AO basis.

  There are 2 irreducible representations.

       Irrep        # of functions
         1                 69
         2                 46


  Parameters for SCF calculation: 
        SCF reference function:  RHF  
  Maximum number of iterations:  150
     Full symmetry point group: C s 
     Computational point group: C s 
        Initial density matrix: MOREAD                 
     SCF convergence tolerance: 10**(- 8)
  DIIS convergence acceleration:  ON
          Latest start for DIIS:   8
                     DIIS order:   6

  Memory information:     630954 words required.
  Fock matrices are constructed from AO integral file.
 @GETMEM-I,  Allocated       4 MB of main memory.
  Initialization and symmetry analysis required      0.003 seconds.

  @INITGES-I, Occupancies from core Hamiltonian:

          Alpha population by irrep:   4    1
           Beta population by irrep:   4    1


 total no. of electrons in initial guess :  0.000000000000000E+000
  --------------------------------------------------------------------
  Iteration         Total Energy            Largest Density Difference
  --------------------------------------------------------------------
       0            11.956746355615010              0.0000000000D+00
   current occupation vector 
     4  1
     4  1
       1           -41.865063074969086              0.1391764487D+02
   current occupation vector 
     4  1
     4  1
       2           -44.904912095069619              0.4761708927D+02
   current occupation vector 
     4  1
     4  1
       3           -51.531539540659253              0.4763759104D+02
   current occupation vector 
     4  1
     4  1
       4           -50.293397812175243              0.1978778233D+02
   current occupation vector 
     4  1
     4  1
       5           -53.286567368057803              0.1979479115D+02
   current occupation vector 
     4  1
     4  1
       6           -53.108948209784586              0.1719316638D+02
   current occupation vector 
     4  1
     4  1
       7           -54.519711956132127              0.1719887406D+02
   current occupation vector 
     4  1
     4  1
       8           -54.056030561222158              0.1490474109D+02
   current occupation vector 
     4  1
     4  1
       9           -56.154282633761511              0.1490168581D+02
   current occupation vector 
     4  1
     4  1
      10           -56.219538381775479              0.3176854882D+00
   current occupation vector 
     4  1
     4  1
      11           -56.220281905504464              0.5244201945D-01
   current occupation vector 
     4  1
     4  1
      12           -56.220307545537565              0.5080448674D-02
   current occupation vector 
     4  1
     4  1
      13           -56.220311337330685              0.1502570704D-02
   current occupation vector 
     4  1
     4  1
      14           -56.220311814981130              0.7259174141D-03
   current occupation vector 
     4  1
     4  1
      15           -56.220311822131563              0.1172147850D-03
   current occupation vector 
     4  1
     4  1
      16           -56.220311822197971              0.1720163345D-04
   current occupation vector 
     4  1
     4  1
      17           -56.220311822201879              0.3163553663D-05
   current occupation vector 
     4  1
     4  1
      18           -56.220311822202518              0.9612642926D-06
   current occupation vector 
     4  1
     4  1
      19           -56.220311822202319              0.1760423642D-06
   current occupation vector 
     4  1
     4  1
      20           -56.220311822202902              0.3971445728D-07
   current occupation vector 
     4  1
     4  1

  SCF has converged.

 Density matrix saved to file den.dat
 total electron number:   10.0000000000000     
     E(SCF)=       -56.220311822202959              0.2963929796D-08

  Eigenvector printing suppressed.

 @PUTMOS-I, Writing converged MOs to NEWMOS. 
 @PUTMOS-I, Symmetry   1 Full Blocks 17 Partial Blocksize   1
 @PUTMOS-I, Symmetry   2 Full Blocks 11 Partial Blocksize   2
 @PUTFOCK-I, Writing converged Fock matrix to NEWFOCK. 
 @PUTFOCK-I, Symmetry   1 Full Blocks 17 Partial Blocksize   1
 @PUTFOCK-I, Symmetry   2 Full Blocks 11 Partial Blocksize   2


 
  ORBITAL EIGENVALUES (ALPHA)  (1H = 27.2113834 eV)

       MO #        E(hartree)               E(eV)           FULLSYM    COMPSYM
       ----   --------------------   --------------------   -------   ---------
    1     1         -15.5418124102        -422.9142162242     A'        A'  (1)
    2     2          -1.1425998454         -31.0917224658     A'        A'  (1)
    3     3          -0.6286565533         -17.1066144997    E          A'  (1)
    4    70          -0.6286565521         -17.1066144669    E          A'' (2)
    5     4          -0.4296370029         -11.6910172088     A'        A'  (1)
  +++++++++++++++++++++++++++++++++++++++++++++++++++++++++++++++++++++++++++++
    6     5           0.0295308474           0.8035752104     A'        A'  (1)
    7     6           0.0486844549           1.3247713671    E          A'  (1)
    8    71           0.0486844549           1.3247713675    E          A'' (2)
    9     7           0.1178575526           3.2070670505     A'        A'  (1)
   10     8           0.1524463098           4.1482749844     A'        A'  (1)
   11    72           0.1623443834           4.4176152586    E          A'' (2)
   12     9           0.1623443834           4.4176152586    E          A'  (1)
   13    73           0.2214798343           6.0267726854    E          A'' (2)
   14    10           0.2214798345           6.0267726912    E          A'  (1)
   15    11           0.2353183857           6.4033388143    E          A'  (1)
   16    74           0.2353183858           6.4033388164    E          A'' (2)
   17    12           0.2545701920           6.9272070977     A'        A'  (1)
   18    75           0.3560054232           9.6874000642     A''       A'' (2)
   19    13           0.3579574445           9.7405172628     A'        A'  (1)
   20    76           0.3706701317          10.0864470676    E          A'' (2)
   21    14           0.3706701317          10.0864470684    E          A'  (1)
   22    15           0.4282226757          11.6525314084     A'        A'  (1)
   23    77           0.4608828877          12.5412609609    E          A'' (2)
   24    16           0.4608828881          12.5412609707    E          A'  (1)
   25    78           0.4868631907          13.2482209454    E          A'' (2)
   26    17           0.4868631909          13.2482209516    E          A'  (1)
   27    18           0.5637735880          15.3410592535     A'        A'  (1)
   28    19           0.6020511996          16.3826460189    E          A'  (1)
   29    79           0.6020511997          16.3826460225    E          A'' (2)
   30    20           0.7493136335          20.3898605677     A'        A'  (1)
   31    80           0.7861059225          21.3910296503    E          A'' (2)
   32    21           0.7861059232          21.3910296692    E          A'  (1)
   33    22           0.8110851205          22.0707481837     A'        A'  (1)
   34    23           0.8829693523          24.0268175765     A'        A'  (1)
   35    81           0.9025380791          24.5593097037     A''       A'' (2)
   36    24           0.9146371599          24.8885424288    E          A'  (1)
   37    82           0.9146371600          24.8885424317    E          A'' (2)
   38    83           0.9803656726          26.6771061886    E          A'' (2)
   39    25           0.9803656732          26.6771062045    E          A'  (1)
   40    26           1.0350123842          28.1641188094     A'        A'  (1)
   41    84           1.0357092113          28.1830804398    E          A'' (2)
   42    27           1.0357092116          28.1830804482    E          A'  (1)
   43    85           1.0813617208          29.4253483783     A''       A'' (2)
   44    28           1.1037747485          30.0352378689    E          A'  (1)
   45    86           1.1037747486          30.0352378720    E          A'' (2)
   46    87           1.1422410518          31.0819591955    E          A'' (2)
   47    29           1.1422410519          31.0819591987    E          A'  (1)
   48    30           1.1856281265          32.2625815207     A'        A'  (1)
   49    31           1.2193659292          33.1806338041    E          A'  (1)
   50    88           1.2193659295          33.1806338115    E          A'' (2)
   51    32           1.3222067476          35.9790747434     A'        A'  (1)
   52    33           1.3625159898          37.0759449858    E          A'  (1)
   53    89           1.3625159903          37.0759449998    E          A'' (2)
   54    34           1.6165205918          43.9877615970     A'        A'  (1)
   55    90           1.7593628994          47.8746983961    E          A'' (2)
   56    35           1.7593628999          47.8746984102    E          A'  (1)
   57    91           1.7631080382          47.9766088040     A''       A'' (2)
   58    92           1.8643546117          50.7316681314    E          A'' (2)
   59    36           1.8643546119          50.7316681380    E          A'  (1)
   60    37           1.8644476682          50.7342003295     A'        A'  (1)
   61    38           2.0031052110          54.5072638873     A'        A'  (1)
   62    93           2.0409913383          55.5381978238    E          A'' (2)
   63    39           2.0409913406          55.5381978856    E          A'  (1)
   64    94           2.0490101441          55.7564006217    E          A'' (2)
   65    40           2.0490101443          55.7564006278    E          A'  (1)
   66    41           2.2726130498          61.8409450169     A'        A'  (1)
   67    95           2.3430713613          63.7582131454     A''       A'' (2)
   68    42           2.3733696997          64.5826728493    E          A'  (1)
   69    96           2.3733697014          64.5826728952    E          A'' (2)
   70    97           2.4368906211          66.3111649959    E          A'' (2)
   71    43           2.4368906215          66.3111650064    E          A'  (1)
   72    44           2.4734745046          67.3066630757     A'        A'  (1)
   73    45           3.3869928657          92.1647614417     A'        A'  (1)
   74    98           3.5605213836          96.8867124718    E          A'' (2)
   75    46           3.5605213849          96.8867125072    E          A'  (1)
   76    99           3.9699573721         108.0280321328    E          A'' (2)
   77    47           3.9699573726         108.0280321481    E          A'  (1)
   78    48           4.0436855980         110.0342791552     A'        A'  (1)
   79    49           4.1399646204         112.6541645475    E          A'  (1)
   80   100           4.1399646205         112.6541645519    E          A'' (2)
   81   101           4.2137167636         114.6610623945     A''       A'' (2)
   82   102           4.2212877681         114.8670798998     A''       A'' (2)
   83   103           4.2604183337         115.9318767224    E          A'' (2)
   84    50           4.2604183340         115.9318767303    E          A'  (1)
   85    51           4.3219358381         117.6058531216     A'        A'  (1)
   86   104           4.3592129443         118.6202147501    E          A'' (2)
   87    52           4.3592129450         118.6202147699    E          A'  (1)
   88    53           4.4723196127         121.6980036678     A'        A'  (1)
   89   105           4.5493058086         123.7929045619    E          A'' (2)
   90    54           4.5493058110         123.7929046278    E          A'  (1)
   91    55           4.6910935841         127.6511460809     A'        A'  (1)
   92   106           4.7448594001         129.1141883159    E          A'' (2)
   93    56           4.7448594005         129.1141883250    E          A'  (1)
   94   107           4.9404929555         134.4376479977    E          A'' (2)
   95    57           4.9404929573         134.4376480463    E          A'  (1)
   96   108           4.9837684891         135.6152351336     A''       A'' (2)
   97   109           5.0622568238         137.7510113010    E          A'' (2)
   98    58           5.0622568250         137.7510113338    E          A'  (1)
   99    59           5.0663961540         137.8636482025     A'        A'  (1)
  100    60           5.2536635728         142.9594537332     A'        A'  (1)
  101   110           5.6731630902         154.3746159369    E          A'' (2)
  102    61           5.6731630915         154.3746159748    E          A'  (1)
  103    62           5.7296352318         155.9113010352     A'        A'  (1)
  104    63           5.8986568124         160.5106120682    E          A'  (1)
  105   111           5.8986568161         160.5106121673    E          A'' (2)
  106    64           6.0582287033         164.8527839697     A'        A'  (1)
  107   112           6.3272245143         172.1725321172    E          A'' (2)
  108    65           6.3272245203         172.1725322800    E          A'  (1)
  109   113           6.4232085404         174.7843902523     A''       A'' (2)
  110    66           6.6288262083         180.3795314457     A'        A'  (1)
  111   114           6.9387633164         188.8133489252    E          A'' (2)
  112    67           6.9387633209         188.8133490462    E          A'  (1)
  113   115           7.6872966701         209.1819769986    E          A'' (2)
  114    68           7.6872966748         209.1819771275    E          A'  (1)
  115    69          17.2425614528         469.1939504897     A'        A'  (1)


  VSCF finished.

 @CHECKOUT-I, Total execution time (CPU/WALL):       55.42/       5.18 seconds.
--executable xvscf finished with status     0 in       10.82 seconds (walltime).
 --invoking executable--
/home/CEISAM/blondel-a/soft/cfour2.1/cfour2.1-serial-mkl/bin/xvtran
 @GETMEM-I,  Allocated  238418 MB of main memory.
  Full RHF integral transformation
  The following   1 MOs will be dropped:
    1
  There are 114 active molecular orbitals.
  Transformation of IIII integrals :
  1 pass through the AO integral file was required.
     3342951 AO integrals were read.
     3337852 MO integrals were written to HF2.
  Transformation of IIJJ integrals :
  1 pass through the AO integral file was required.
     2499632 AO integrals were read.
     2536026 MO integrals were written to HF2.
  Transformation of IJIJ integrals :
  1 pass through the AO integral file was required.
     4833618 AO integrals were read.
     4893756 MO integrals were written to HF2.
  Summary of active molecular orbitals: 
------------------------------------------------------------------------
 
  Index      Eigenvalue    Symmetry    Index      Eigenvalue    Symmetry
------------------------------------------------------------------------
     1        -1.1425998        1        58         5.0622568        1
     2        -0.6286566        1        59         5.0663962        1
     3        -0.4296370        1        60         5.2536636        1
     4        -0.6286566        2        61         5.6731631        1
     5         0.0295308        1        62         5.7296352        1
     6         0.0486845        1        63         5.8986568        1
     7         0.1178576        1        64         6.0582287        1
     8         0.1524463        1        65         6.3272245        1
     9         0.1623444        1        66         6.6288262        1
    10         0.2214798        1        67         6.9387633        1
    11         0.2353184        1        68         7.6872967        1
    12         0.2545702        1        69        17.2425615        1
    13         0.3579574        1        70         0.0486845        2
    14         0.3706701        1        71         0.1623444        2
    15         0.4282227        1        72         0.2214798        2
    16         0.4608829        1        73         0.2353184        2
    17         0.4868632        1        74         0.3560054        2
    18         0.5637736        1        75         0.3706701        2
    19         0.6020512        1        76         0.4608829        2
    20         0.7493136        1        77         0.4868632        2
    21         0.7861059        1        78         0.6020512        2
    22         0.8110851        1        79         0.7861059        2
    23         0.8829694        1        80         0.9025381        2
    24         0.9146372        1        81         0.9146372        2
    25         0.9803657        1        82         0.9803657        2
    26         1.0350124        1        83         1.0357092        2
    27         1.0357092        1        84         1.0813617        2
    28         1.1037747        1        85         1.1037747        2
    29         1.1422411        1        86         1.1422411        2
    30         1.1856281        1        87         1.2193659        2
    31         1.2193659        1        88         1.3625160        2
    32         1.3222067        1        89         1.7593629        2
    33         1.3625160        1        90         1.7631080        2
    34         1.6165206        1        91         1.8643546        2
    35         1.7593629        1        92         2.0409913        2
    36         1.8643546        1        93         2.0490101        2
    37         1.8644477        1        94         2.3430714        2
    38         2.0031052        1        95         2.3733697        2
    39         2.0409913        1        96         2.4368906        2
    40         2.0490101        1        97         3.5605214        2
    41         2.2726130        1        98         3.9699574        2
    42         2.3733697        1        99         4.1399646        2
    43         2.4368906        1       100         4.2137168        2
    44         2.4734745        1       101         4.2212878        2
    45         3.3869929        1       102         4.2604183        2
    46         3.5605214        1       103         4.3592129        2
    47         3.9699574        1       104         4.5493058        2
    48         4.0436856        1       105         4.7448594        2
    49         4.1399646        1       106         4.9404930        2
    50         4.2604183        1       107         4.9837685        2
    51         4.3219358        1       108         5.0622568        2
    52         4.3592129        1       109         5.6731631        2
    53         4.4723196        1       110         5.8986568        2
    54         4.5493058        1       111         6.3272245        2
    55         4.6910936        1       112         6.4232085        2
    56         4.7448594        1       113         6.9387633        2
    57         4.9404930        1       114         7.6872967        2
------------------------------------------------------------------------
  -1.14259984539450      -0.628656553333059      -0.429637002901667     
 -0.628656552127442       2.953084738794478E-002  4.868445486946645E-002
  0.117857552604606       0.152446309819418       0.162344383367206     
  0.221479834472107       0.235318385698889       0.254570192035022     
  0.357957444487186       0.370670131693831       0.428222675674843     
  0.460882888104515       0.486863190925778       0.563773587987871     
  0.602051199604740       0.749313633487958       0.786105923200281     
  0.811085120492176       0.882969352321545       0.914637159860141     
  0.980365673157805        1.03501238417180        1.03570921161675     
   1.10377474850832        1.14224105190938        1.18562812652606     
   1.21936592918944        1.32220674761263        1.36251598975232     
   1.61652059178148        1.75936289994842        1.86435461190192     
   1.86444766823038        2.00310521101007        2.04099134061744     
   2.04901014432784        2.27261304976086        2.37336969972934     
   2.43689062153241        2.47347450463307        3.38699286570332     
   3.56052138485639        3.96995737262354        4.04368559796359     
   4.13996462037587        4.26041833398029        4.32193583813080     
   4.35921294504499        4.47231961267500        4.54930581102895     
   4.69109358405218        4.74485940045864        4.94049295730786     
   5.06225682497958        5.06639615398934        5.25366357276704     
   5.67316309154552        5.72963523181901        5.89865681243356     
   6.05822870327492        6.32722452030757        6.62882620828960     
   6.93876332087523        7.68729667479983        17.2425614527802     
  4.868445488343461E-002  0.162344383363860       0.221479834260407     
  0.235318385775082       0.356005423238211       0.370670131662451     
  0.460882887744706       0.486863190696478       0.602051199738943     
  0.786105922505390       0.902538079106786       0.914637159965655     
  0.980365672573003        1.03570921130785        1.08136172078423     
   1.10377474862212        1.14224105178966        1.21936592946262     
   1.36251599026643        1.75936289942886        1.76310803823233     
   1.86435461165859        2.04099133834378        2.04901014410284     
   2.34307136128094        2.37336970141658        2.43689062114808     
   3.56052138355282        3.96995737205893        4.13996462054001     
   4.21371676364160        4.22128776811048        4.26041833369078     
   4.35921294432028        4.54930580860907        4.74485940012527     
   4.94049295552332        4.98376848909574        5.06225682377511     
   5.67316309015477        5.89865681607707        6.32722451432589     
   6.42320854044756        6.93876331642752        7.68729667006208     
 @CHECKOUT-I, Total execution time (CPU/WALL):       31.04/       5.72 seconds.
--executable xvtran finished with status     0 in        8.43 seconds (walltime).
 --invoking executable--
/home/CEISAM/blondel-a/soft/cfour2.1/cfour2.1-serial-mkl/bin/xintprc
 @GETMEM-I,  Allocated  238418 MB of main memory.
  @GMOIAA-I, Processing MO integrals for spin case AA.
  @GMOIAA-I, Generation of integral list completed.
                      TYPE                NUMBER
                      ----               --------
                      PPPP               9337065
                      PPPH               1348200
                      PPHH                 49020
                      PHPH                 31035
                      PHHH                  2280
                      HHHH                    34

                     TOTAL              10767634

  @FORMT2-I, Second-order MP correlation energies:
            ------------------------------------------------
            E(SCF)                  =    -56.220311822203 a.u.
            E2(AA)                  =     -0.026559018265 a.u.
            E2(AB)                  =     -0.187110540879 a.u.
            E2(TOT)                 =     -0.240228577408 a.u.
            Total MP2 energy        =    -56.460540399611 a.u.
            ------------------------------------------------
   Largest T2 amplitudes for spin case AB:
       _       _                 _       _                 _       _
   i   j   a   b             i   j   a   b             i   j   a   b
-----------------------------------------------------------------------------
[  4   4  76  76]-0.01624 [  2   2  16  16]-0.01624 [  3   3  13  13]-0.01521
[  3   3  20  20]-0.01367 [  3   3  18  18]-0.01327 [  4   4  76  72]-0.01213
[  4   4  72  76]-0.01213 [  2   2  16  10]-0.01213 [  2   2  10  16]-0.01213
[  3   3  13   7]-0.01209 [  3   3   7  13]-0.01209 [  4   3  76  13]-0.01167
[  3   4  13  76]-0.01167 [  3   2  13  16]-0.01167 [  2   3  16  13]-0.01167
-----------------------------------------------------------------------------
   Norm of T2AB vector (    97600 symmetry allowed elements):  0.2260116526.
-----------------------------------------------------------------------------
 @CHECKOUT-I, Total execution time (CPU/WALL):        7.14/       2.69 seconds.
--executable xintprc finished with status     0 in        4.33 seconds (walltime).
  calling xncc 
 --invoking executable--
/home/CEISAM/blondel-a/soft/cfour2.1/cfour2.1-serial-mkl/bin/xncc
 @GETMEM-I,  Allocated       7 MB of main memory.

Running with 20 threads/proc

Following the lowest-energy eigenvector.
Using discrete restarting.
Using an orthogonal subspace.
Orthogonalizing against previous roots.
Using Modified Gram-Schmidt orthogonalization.

Using DIIS to accelerate the convergence of T1 and T2
Using immediate high-order contributions
Performing 3 CCSD sub-iterations
Damping factor for T3: 0.000000
Damping factor for T4: 0.000000

Transposes are coarse-threaded

Memory limit:                232.831 GiB
Minimum memory requirement:  102.597 MiB
Compromise memory amount:      5.316 GiB
Optimal memory requirement:    6.488 GiB

List              Location   Size        Cached Hunks Est. Disk I/O
----------------- ---------- ----------- ------ ----- -------------

           HR_DAV      470:1   25.380 MiB    Yes     -     3.663 GiB
                R        471    2.986 MiB    Yes     -   268.726 MiB
            R_DAV      470:0   25.380 MiB    Yes     -     8.285 GiB
           T_DIIS       70:0    3.732 MiB    Yes     -    67.181 MiB
           Z_DIIS       70:1    3.732 MiB    Yes     -   111.969 MiB
          <AI|bj>         18  762.500 KiB    Yes     -   129.126 MiB
          <Ab|Cd>        233  559.120 MiB    Yes     -   639.385 GiB
          <Ab|Ci>         30   20.370 MiB    Yes     -    38.891 GiB
          <Ab|Ij>         16  762.500 KiB    Yes     -     2.142 GiB
          <Ai|Bj>         25  762.500 KiB    Yes     -   102.759 MiB
          <Aj|bI>         21  762.500 KiB     No     -         0   B
          <Ij|Ka>         10   28.125 KiB    Yes     -    53.888 MiB
          <Ij|Kl>         13    1.062 KiB    Yes     -    64.812 KiB
           DD(AI)      448:8    1.875 KiB    Yes     -   114.375 KiB
        DD(Ab,Ij)        450  762.500 KiB    Yes     -    45.422 MiB
            F(EA)       92:0   48.828 KiB    Yes     -    30.947 MiB
            F(EM)       93:0    1.875 KiB    Yes     -     1.218 MiB
            F(MI)       91:0       80   B    Yes     -    67.109 KiB
           HR(AI)      490:2    1.875 KiB    Yes     -     8.240 MiB
        HR(Ab,Ij)        463  762.500 KiB    Yes     -     5.018 GiB
            Q(AI)      190:2    1.875 KiB    Yes     -   337.500 KiB
         Q(Ab,Ij)         50  762.500 KiB    Yes     -   402.100 MiB
            R(AI)      490:0    1.875 KiB    Yes     -    23.071 MiB
         R(Ab,Ij)        446  762.500 KiB    Yes     -     9.991 GiB
            T(AI)       90:0    1.875 KiB    Yes     -     3.322 MiB
         T(Ab,Ij)         46  762.500 KiB    Yes     -     1.503 GiB
         W(Mn,Ij)         53    1.062 KiB    Yes     -   751.188 KiB
        W~(Ab,Ej)        130   20.370 MiB    Yes     -    18.192 GiB
        W~(EM,bj)         56  762.500 KiB    Yes     -   948.962 MiB
        W~(Em,Bj)         58  762.500 KiB    Yes     -     1.119 GiB
        W~(Ij,Mb)        110   28.125 KiB    Yes     -    19.885 MiB
       W~~(Ab,Ej)        169   20.370 MiB    Yes     -     4.496 GiB
       W~~(EM,bj)         76  762.500 KiB    Yes     -    95.312 MiB
       W~~(Em,Bj)         78  762.500 KiB    Yes     -    95.312 MiB
       W~~(Ij,Mb)        165   28.125 KiB    Yes     -     6.207 MiB
         X(Ab,Ef)        433  559.120 MiB    Yes     -   327.609 GiB
         X(Ab,Ej)        430   20.370 MiB    Yes     -    29.259 GiB
         X(Ab,Ij)        416  762.500 KiB     No     -         0   B
            X(EA)      492:0   48.828 KiB    Yes     -    25.749 MiB
            X(EM)      493:0    1.875 KiB    Yes     -   675.000 KiB
         X(EM,bj)        418  762.500 KiB    Yes     -   491.455 MiB
         X(Ef,Am)        469   20.370 MiB     No     -         0   B
         X(Em,Bj)        425  762.500 KiB    Yes     -   670.166 MiB
         X(Ij,Mb)        410   28.125 KiB    Yes     -    41.199 MiB
            X(MI)      491:0       80   B    Yes     -    51.562 KiB
         X(Mn,Ie)        465   28.125 KiB     No     -         0   B
         X(Mn,Ij)        413    1.062 KiB    Yes     -   573.750 KiB
            Z(AI)       90:2    1.875 KiB    Yes     -   871.875 KiB
         Z(Ab,Ij)         63  762.500 KiB    Yes     -   346.252 MiB
      HR(abc,ijk)    HR3FILE   81.360 MiB    Yes     1   214.523 GiB
            HR3_1      HR3_1   81.360 MiB    Yes     1   150.484 GiB
           HR3_10     HR3_10   81.360 MiB    Yes     1    31.225 GiB
           HR3_11     HR3_11   81.360 MiB    Yes     1     5.562 GiB
           HR3_12     HR3_12   81.360 MiB    Yes     1     5.562 GiB
           HR3_13     HR3_13   81.360 MiB    Yes     1     5.562 GiB
           HR3_14     HR3_14   81.360 MiB    Yes     1     5.562 GiB
           HR3_15     HR3_15   81.360 MiB    Yes     1     5.562 GiB
           HR3_16     HR3_16   81.360 MiB    Yes     1     5.562 GiB
           HR3_17     HR3_17   81.360 MiB    Yes     1     5.562 GiB
           HR3_18     HR3_18   81.360 MiB    Yes     1     5.562 GiB
           HR3_19     HR3_19   81.360 MiB    Yes     1     5.562 GiB
            HR3_2      HR3_2   81.360 MiB    Yes     1    21.850 GiB
           HR3_20     HR3_20   81.360 MiB    Yes     1     5.562 GiB
           HR3_21     HR3_21   81.360 MiB    Yes     1     3.258 GiB
           HR3_22     HR3_22   81.360 MiB    Yes     1     3.258 GiB
           HR3_23     HR3_23   81.360 MiB    Yes     1     3.258 GiB
           HR3_24     HR3_24   81.360 MiB    Yes     1     3.258 GiB
           HR3_25     HR3_25   81.360 MiB    Yes     1     3.258 GiB
           HR3_26     HR3_26   81.360 MiB    Yes     1     3.258 GiB
           HR3_27     HR3_27   81.360 MiB    Yes     1     3.258 GiB
           HR3_28     HR3_28   81.360 MiB    Yes     1     3.258 GiB
           HR3_29     HR3_29   81.360 MiB    Yes     1     3.258 GiB
            HR3_3      HR3_3   81.360 MiB    Yes     1    21.929 GiB
           HR3_30     HR3_30   81.360 MiB    Yes     1     3.258 GiB
           HR3_31     HR3_31   81.360 MiB     No     1         0   B
           HR3_32     HR3_32   81.360 MiB     No     1         0   B
           HR3_33     HR3_33   81.360 MiB     No     1         0   B
           HR3_34     HR3_34   81.360 MiB     No     1         0   B
            HR3_4      HR3_4   81.360 MiB    Yes     1    22.008 GiB
            HR3_5      HR3_5   81.360 MiB    Yes     1    22.088 GiB
            HR3_6      HR3_6   81.360 MiB    Yes     1    22.167 GiB
            HR3_7      HR3_7   81.360 MiB    Yes     1    22.247 GiB
            HR3_8      HR3_8   81.360 MiB    Yes     1    22.326 GiB
            HR3_9      HR3_9   81.360 MiB    Yes     1    22.406 GiB
       R(abc,ijk)     R3FILE   81.360 MiB    Yes     1   691.241 GiB
             R3_1       R3_1   81.360 MiB    Yes     1   276.020 GiB
            R3_10      R3_10   81.360 MiB    Yes     1    56.650 GiB
            R3_11      R3_11   81.360 MiB    Yes     1    19.863 GiB
            R3_12      R3_12   81.360 MiB    Yes     1    19.863 GiB
            R3_13      R3_13   81.360 MiB    Yes     1    19.863 GiB
            R3_14      R3_14   81.360 MiB    Yes     1    19.863 GiB
            R3_15      R3_15   81.360 MiB    Yes     1    19.863 GiB
            R3_16      R3_16   81.360 MiB    Yes     1    19.863 GiB
            R3_17      R3_17   81.360 MiB    Yes     1    19.863 GiB
            R3_18      R3_18   81.360 MiB    Yes     1    19.863 GiB
            R3_19      R3_19   81.360 MiB    Yes     1    19.863 GiB
           R3_1_1     R3_1_1   81.360 MiB    Yes     1    23.836 GiB
           R3_1_2     R3_1_2   81.360 MiB     No     1         0   B
           R3_1_3     R3_1_3   81.360 MiB     No     1         0   B
           R3_1_4     R3_1_4   81.360 MiB     No     1         0   B
             R3_2       R3_2   81.360 MiB    Yes     1    47.275 GiB
            R3_20      R3_20   81.360 MiB    Yes     1    10.329 GiB
            R3_21      R3_21   81.360 MiB    Yes     1     3.258 GiB
            R3_22      R3_22   81.360 MiB    Yes     1     3.258 GiB
            R3_23      R3_23   81.360 MiB    Yes     1     3.258 GiB
            R3_24      R3_24   81.360 MiB    Yes     1     3.258 GiB
            R3_25      R3_25   81.360 MiB    Yes     1     3.258 GiB
            R3_26      R3_26   81.360 MiB    Yes     1     3.258 GiB
            R3_27      R3_27   81.360 MiB    Yes     1     3.258 GiB
            R3_28      R3_28   81.360 MiB    Yes     1     3.258 GiB
            R3_29      R3_29   81.360 MiB    Yes     1     3.258 GiB
             R3_3       R3_3   81.360 MiB    Yes     1    47.354 GiB
            R3_30      R3_30   81.360 MiB    Yes     1     3.258 GiB
            R3_31      R3_31   81.360 MiB     No     1         0   B
            R3_32      R3_32   81.360 MiB     No     1         0   B
            R3_33      R3_33   81.360 MiB     No     1         0   B
            R3_34      R3_34   81.360 MiB     No     1         0   B
             R3_4       R3_4   81.360 MiB    Yes     1    47.433 GiB
             R3_5       R3_5   81.360 MiB    Yes     1    47.513 GiB
             R3_6       R3_6   81.360 MiB    Yes     1    47.592 GiB
             R3_7       R3_7   81.360 MiB    Yes     1    47.672 GiB
             R3_8       R3_8   81.360 MiB    Yes     1    47.751 GiB
             R3_9       R3_9   81.360 MiB    Yes     1    47.831 GiB
       T(abc,ijk)     T3FILE   81.360 MiB    Yes     1     8.422 GiB
       Z(abc,ijk)     Z3FILE   81.360 MiB    Yes     1     3.575 GiB

Simulation and memory analysis took 1.816 seconds

MP2 correlation energy:  -0.240228577408150

Non-iterative calculation of MP2 took 0.111 cpu seconds and 0.006 walltime seconds at 0.783 Gflops/sec

Total MP2 energy: -56.460540399611112

Beginning iterative solution of CCSDT equations:

It.  Correlation Energy T1 Residual T2 Residual T3 Residual CPU Time (s) Walltime (s)
-------------------------------------------------------------------------------------
  1  -0.259621959383301 6.94849e-04 1.85419e-03 4.88341e-04       33.374        1.675
  2  -0.260209682341542 1.94003e-04 2.53256e-04 7.12710e-05       86.383        4.451
  3  -0.260390744155426 4.60846e-05 6.80156e-05 2.02916e-05       88.191        4.537
  4  -0.260423694520264 1.15274e-05 1.04153e-05 4.27992e-06       84.947        4.367
  5  -0.260432294487458 3.78145e-06 4.10651e-06 1.74801e-06       87.710        4.507

   A    I                     A    I                     A    I                  
-------------------------- -------------------------- -------------------------- 
   9    5 -0.0114125048487   27    5 -0.0040024670043   38    4  0.0026777967344 
  19    5 -0.0085190278093    6    5  0.0033622645375   39    3  0.0026777967037 
  17    5  0.0072354457764   78    5  0.0032779072804   89    4  0.0025751641838 
  62    4  0.0045434259192   51    5  0.0030999800300   90    3  0.0025751641759 
  63    3  0.0045434258765   60    5  0.0027182758624   41    4  0.0024219445867 

   A    B    I    J                     A    B    I    J                  
------------------------------------ ------------------------------------ 
  23   23    4    4 -0.0191485402095   14   24    3    3 -0.0147125478072 
  24   24    3    3 -0.0191485398211   19    9    5    5 -0.0143895076721 
  19   19    5    5 -0.0176928354745    9   19    5    5 -0.0143895076721 
  27   27    5    5 -0.0149103377569   13   13    4    4 -0.0125356752774 
  30   30    5    5 -0.0148465394868   14   14    3    3 -0.0125356750907 
  23   13    4    4 -0.0147125480987   23   19    4    5 -0.0124794040168 
  13   23    4    4 -0.0147125480987   19   23    5    4 -0.0124794040168 
  24   14    3    3 -0.0147125478072 

It.  Correlation Energy T1 Residual T2 Residual T3 Residual CPU Time (s) Walltime (s)
-------------------------------------------------------------------------------------
  6  -0.260434340776161 7.16872e-07 6.29509e-07 5.31283e-07       84.983        4.368
  7  -0.260434970517551 2.45693e-07 3.76524e-07 3.33370e-07       83.678        4.301
  8  -0.260435135342763 5.11184e-08 6.13109e-08 1.38307e-07       85.266        4.373

CCSDT iterations converged in 8 cycles and 32.580 seconds (4.073 s/it.) at 77.747 Gflops/sec

Total CCSDT energy: -56.480746957545719

             _
Formation of H took 0.526 seconds at 16.247 Gflops/sec

Searching for 4 roots in irrep 1

EOMEE-CCSD guess vector:

   A    I                  
-------------------------- 
   6    5  1.0000000000000 

Beginning iterative solution of EOMEE-CCSDT equations:

It.  Correlation Energy R1 Residual R2 Residual R3 Residual CPU Time (s) Walltime (s)
-------------------------------------------------------------------------------------
  1   0.380226406640607 3.40015e-02 5.42031e-02 1.57753e-03      152.637        8.108
  2   0.296249119074388 9.78577e-02 3.25988e-02 2.92603e-03      153.834        7.913
  3   0.259729766231459 2.48239e-02 1.01571e-02 3.47542e-03      157.426        8.146
  4   0.253404556114241 3.13824e-02 7.65552e-03 3.51979e-03      162.445        8.409
  5   0.244380494591925 5.75229e-03 9.17090e-03 1.47776e-03      170.319        8.765
  6   0.241355304258856 1.34286e-03 2.78962e-03 5.09111e-04      175.301        9.019
  7   0.241468159811064 8.81599e-04 1.71199e-03 2.15362e-04      177.402        9.125
  8   0.241572897313818 6.11842e-04 6.45924e-04 1.15307e-04      180.778        9.294
  9   0.241473057649394 2.77191e-04 3.18436e-04 4.60570e-05      186.026        9.546
Locking on root: 0.241452067023397
 10   0.241452067023397 1.58320e-04 1.34996e-04 2.23584e-05      188.649        9.675
 11   0.241473767216776 9.18200e-05 5.65437e-05 9.78476e-06      196.980       10.092
 12   0.241478183473636 6.46154e-05 2.32682e-05 4.32546e-06      199.937       10.237
 13   0.241473258098359 2.61791e-05 1.73228e-05 2.25140e-06      207.037       10.595
 14   0.241471981422785 1.76648e-05 7.16581e-06 1.40800e-06      210.828       10.786
 15   0.241473230543840 6.70651e-06 3.82435e-06 7.92676e-07      217.781       11.133

EOMEE-CCSDT iterations converged in 15 cycles and 140.845 seconds (9.390 s/it.) at 73.768 Gflops/sec

EOMEE-CCSDT excitation energy:   0.241473230543839 (  6.570820657164998 eV)
Total EOMEE-CCSDT energy:      -56.239273727001880

Converged root:

   A    I                     A    I                     A    I                  
-------------------------- -------------------------- -------------------------- 
   6    5  0.5740435363544   17    5 -0.0386274169386   10    2 -0.0113137286549 
  10    5  0.3242046201206   40    5 -0.0175988283684   33    5  0.0078279948261 
   9    5 -0.1022319794881   34    5  0.0166562474139   23    4  0.0068016046181 
  22    5  0.0969397360951    6    2 -0.0136994374968   24    3  0.0068016045047 
  19    5 -0.0423436930784   30    5 -0.0113453858277   22    2 -0.0064136569432 

   A    B    I    J                     A    B    I    J                  
------------------------------------ ------------------------------------ 
  19    6    5    5  0.0555485394061   30    6    5    5 -0.0344313570877 
   6   19    5    5  0.0555485394061    6   30    5    5 -0.0344313570877 
   9    6    5    5  0.0546182984347   13    6    4    5  0.0293881150083 
   6    9    5    5  0.0546182984347    6   13    5    4  0.0293881150083 
  23    6    4    5  0.0347347047857    6   14    5    3  0.0293881147522 
   6   23    5    4  0.0347347047857   14    6    3    5  0.0293881147522 
   6   24    5    3  0.0347347044702   19   10    5    5  0.0288284014098 
  24    6    3    5  0.0347347044702 

EOMEE-CCSD guess vector:

   A    I                  
-------------------------- 
   7    5  1.0000000000000 

Beginning iterative solution of EOMEE-CCSDT equations:

It.  Correlation Energy R1 Residual R2 Residual R3 Residual CPU Time (s) Walltime (s)
-------------------------------------------------------------------------------------
  1   0.422618009094565 8.77303e-02 5.76028e-02 1.61680e-03      149.466        7.700
  2   0.313871439854824 1.50776e-02 1.32530e-02 6.08706e-03      151.054        7.779
  3   0.308064119576631 2.76893e-02 1.03421e-02 2.17756e-03      155.866        8.044
  4   0.305770834520525 1.25771e-02 1.02691e-02 1.65369e-03      158.126        8.131
  5   0.300478628239658 3.52431e-03 4.57514e-03 9.15276e-04      162.544        8.405
  6   0.299228249208226 1.36052e-03 2.72349e-03 5.17894e-04      165.916        8.531
  7   0.299273969152391 7.67437e-04 1.16485e-03 1.82757e-04      172.017        8.849
  8   0.299238020785963 5.07327e-04 5.80315e-04 8.01506e-05      175.285        8.992
Locking on root: 0.299224678156305
  9   0.299224678156305 4.35163e-04 1.90357e-04 3.53564e-05      177.333        9.098
 10   0.299244872054315 3.22608e-04 1.14431e-04 2.66225e-05      182.186        9.340
 11   0.299242037296878 1.87177e-04 8.98372e-05 1.72623e-05      189.026        9.689
 12   0.299231710379384 6.46530e-05 6.83067e-05 1.16391e-05      189.698        9.718
 13   0.299231902274048 2.55717e-05 3.58813e-05 6.13909e-06      193.911        9.944
 14   0.299233698009991 1.36272e-05 1.55020e-05 2.55863e-06      197.608       10.117
 15   0.299233162867790 9.62502e-06 6.17897e-06 9.84999e-07      215.755       11.021

EOMEE-CCSDT iterations converged in 15 cycles and 135.360 seconds (9.024 s/it.) at 76.834 Gflops/sec

EOMEE-CCSDT excitation energy:   0.299233162867793 (  8.142548320790162 eV)
Total EOMEE-CCSDT energy:      -56.181513794677926

Converged root:

   A    I                     A    I                     A    I                  
-------------------------- -------------------------- -------------------------- 
   7    5  0.5984209679535   21    5  0.0336489133756   39    5  0.0107450180202 
  12    5  0.2481194124680   36    5  0.0179039968213   12    2 -0.0059574493752 
  14    5  0.1717156801199   32    5  0.0156872240002   42    5  0.0059221044072 
  24    5  0.0870706265360    7    2 -0.0120465135080   47    5  0.0052055539652 
  15    5  0.0353626844315   44    5  0.0116299217782   15    2  0.0047023459825 

   A    B    I    J                     A    B    I    J                  
------------------------------------ ------------------------------------ 
  19    7    5    5  0.0580078854684   30    7    5    5 -0.0351232454951 
   7   19    5    5  0.0580078854684    7   30    5    5 -0.0351232454951 
   9    7    5    5  0.0548554942109    7   14    5    3  0.0330023129403 
   7    9    5    5  0.0548554942109   14    7    3    5  0.0330023129403 
   7   24    5    3  0.0381886240288   13    7    4    5  0.0301364767839 
  24    7    3    5  0.0381886240288    7   13    5    4  0.0301364767839 
  23    7    4    5  0.0360688666055   34    7    5    5 -0.0293421105297 
   7   23    5    4  0.0360688666055 

EOMEE-CCSD guess vector:

   A    I                  
-------------------------- 
   9    5  1.0000000000000 

Beginning iterative solution of EOMEE-CCSDT equations:

It.  Correlation Energy R1 Residual R2 Residual R3 Residual CPU Time (s) Walltime (s)
-------------------------------------------------------------------------------------
  1   0.458878879208529 1.53758e-01 1.08771e-01 1.53993e-03      151.388        7.804
  2   0.353435018160843 6.70858e-02 1.28310e-02 1.03469e-02      153.668        7.926
  3   0.343698261169272 1.29833e-02 9.10620e-03 1.45199e-03      159.004        8.167
  4   0.344465656341795 7.00979e-03 3.38370e-03 6.62966e-04      162.605        8.379
  5   0.343099698576728 2.61573e-03 2.49100e-03 3.24658e-04      167.546        8.630
  6   0.342410058068260 2.55060e-03 1.51475e-03 3.25360e-04      170.857        8.766
Locking on root: 0.342399221160804
  7   0.342399221160804 1.99038e-03 1.31715e-03 1.46492e-04      178.433        9.171
  8   0.342383914817493 1.30763e-03 1.07067e-03 1.64907e-04      178.872        9.177
  9   0.342317512299862 1.03853e-03 1.06027e-03 1.38696e-04      184.766        9.483
 10   0.342328454960432 5.00976e-04 7.11281e-04 1.07356e-04      188.823        9.680
 11   0.342325665964555 4.55553e-04 3.19335e-04 6.54361e-05      188.980        9.690
 12   0.342290870792489 3.57001e-04 1.37350e-04 2.51970e-05      196.714       10.079
 13   0.342284877442686 2.50616e-04 9.06573e-05 2.22976e-05      199.193       10.215
 14   0.342293603666617 1.27036e-04 1.00880e-04 1.45777e-05      203.564       10.412
 15   0.342292172212442 5.19141e-05 6.39353e-05 9.30253e-06      222.815       11.386
 16   0.342288565843940 1.60481e-05 2.71646e-05 3.55934e-06      227.031       11.584
 17   0.342289223588626 6.88525e-06 8.01839e-06 1.31621e-06      231.183       11.812

EOMEE-CCSDT iterations converged in 17 cycles and 162.364 seconds (9.551 s/it.) at 72.696 Gflops/sec

EOMEE-CCSDT excitation energy:   0.342289223588629 (  9.314163296758519 eV)
Total EOMEE-CCSDT energy:      -56.138457733957090

Converged root:

   A    I                     A    I                     A    I                  
-------------------------- -------------------------- -------------------------- 
   9    5 -0.6497810102236   13    4  0.0340366089618    7    3  0.0208816771661 
  10    5 -0.1159194536619   14    3  0.0340366085252    9    2  0.0200108778526 
  19    5 -0.0952681710703   23    4  0.0297183553488   27    5  0.0199257132449 
   6    5 -0.0595527262596   24    3  0.0297183549772   11    4  0.0196832646196 
  17    5  0.0449104024110    8    4  0.0208816773940   12    3  0.0196832645471 

   A    B    I    J                     A    B    I    J                  
------------------------------------ ------------------------------------ 
   9    9    5    5 -0.1186251927585   24    9    3    5 -0.0367276420413 
  19    9    5    5 -0.0680645349332   13    9    4    5 -0.0294421502276 
   9   19    5    5 -0.0680645349332    9   13    5    4 -0.0294421502276 
  30    9    5    5  0.0397939129456    9   14    5    3 -0.0294421499941 
   9   30    5    5  0.0397939129456   14    9    3    5 -0.0294421499941 
  23    9    4    5 -0.0367276423157   34    9    5    5  0.0288681208143 
   9   23    5    4 -0.0367276423157    9   34    5    5  0.0288681208143 
   9   24    5    3 -0.0367276420413 

EOMEE-CCSD guess vector:

   A    I                  
-------------------------- 
  10    5  1.0000000000000 

Beginning iterative solution of EOMEE-CCSDT equations:

It.  Correlation Energy R1 Residual R2 Residual R3 Residual CPU Time (s) Walltime (s)
-------------------------------------------------------------------------------------
  1   0.522728563955352 6.07754e+00 5.85157e-02 1.67801e-03      154.978        8.002
  2   0.469021244529881 9.86440e-02 3.88869e-02 1.15985e-03      158.386        8.166
  3   0.371595876300437 1.21659e-02 8.82960e-03 4.20982e-03      163.554        8.445
  4   0.368402065872332 1.01440e-02 9.51260e-03 1.25225e-03      169.264        8.724
  5   0.367852963980270 7.68029e-03 4.73182e-03 8.26484e-04      171.928        8.841
  6   0.366029392340717 5.28123e-03 4.36067e-03 5.40054e-04      175.195        9.008
  7   0.365358467282547 4.31622e-03 2.88600e-03 3.64346e-04      178.261        9.155
Locking on root: 0.365342980576313
  8   0.365342980576313 2.54701e-03 2.02151e-03 2.72652e-04      186.484        9.558
  9   0.365287993682513 1.09666e-03 1.20409e-03 1.66392e-04      189.305        9.699
 10   0.365253060723942 4.56653e-04 5.63554e-04 8.01795e-05      191.841        9.831
 11   0.365272952258789 2.77909e-04 2.08777e-04 3.05711e-05      197.731       10.119
 12   0.365273601832851 1.53490e-04 1.03521e-04 1.63915e-05      201.479       10.314
 13   0.365264240958614 6.89896e-05 6.12907e-05 1.10841e-05      206.641       10.575
 14   0.365263068713267 2.85266e-05 2.93053e-05 3.76908e-06      207.457       10.630
 15   0.365265067483466 9.07257e-06 8.44470e-06 2.42026e-06      215.825       11.040

EOMEE-CCSDT iterations converged in 15 cycles and 142.110 seconds (9.474 s/it.) at 73.287 Gflops/sec

EOMEE-CCSDT excitation energy:   0.365265067483463 (  9.939367793919390 eV)
Total EOMEE-CCSDT energy:      -56.115481890062256

Converged root:

   A    I                     A    I                     A    I                  
-------------------------- -------------------------- -------------------------- 
  10    5  0.5383150987655   19    5 -0.0617738792163   33    5  0.0108189346191 
   6    5 -0.3524501429384   30    5 -0.0247799858669   27    5 -0.0075079171885 
  22    5  0.1483530191533   34    5  0.0242736938969   72    5  0.0059278623078 
  17    5 -0.1177427583965   40    5 -0.0206609985711    6    2  0.0059025622553 
   9    5 -0.0620112577939   10    2 -0.0137107523598   22    2 -0.0049974375053 

   A    B    I    J                     A    B    I    J                  
------------------------------------ ------------------------------------ 
  19   10    5    5  0.0492466797388   30   10    5    5 -0.0311118367366 
  10   19    5    5  0.0492466797388   10   30    5    5 -0.0311118367366 
  10    9    5    5  0.0439348723134   10   23    5    4  0.0308722527652 
   9   10    5    5  0.0439348723134   23   10    4    5  0.0308722527652 
  19    6    5    5 -0.0364281229624   10   24    5    3  0.0308722524290 
   6   19    5    5 -0.0364281229624   24   10    3    5  0.0308722524290 
   9    6    5    5 -0.0360575903147   13   10    4    5  0.0261403323805 
   6    9    5    5 -0.0360575903147 

 @CHECKOUT-I, Total execution time (CPU/WALL):    12119.55/     624.79 seconds.
--executable xncc finished with status     0 in      628.89 seconds (walltime).
  The final electronic energy is       -56.115481890062256 a.u. 
  This computation required                          666.73 seconds (walltime).
