 --invoking executable--
/home/CEISAM/blondel-a/soft/cfour2.1/cfour2.1-serial-mkl/bin/xjoda


   *************************************************************************
         <<<     CCCCCC     CCCCCC   |||     CCCCCC     CCCCCC   >>>
       <<<      CCC        CCC       |||    CCC        CCC         >>>
      <<<      CCC        CCC        |||   CCC        CCC            >>>
    <<<        CCC        CCC        |||   CCC        CCC              >>>
      <<<      CCC        CCC        |||   CCC        CCC            >>>
       <<<      CCC        CCC       |||    CCC        CCC         >>>
         <<<     CCCCCC     CCCCCC   |||     CCCCCC     CCCCCC   >>>
   *************************************************************************

     ****************************************************************
     * CFOUR Coupled-Cluster techniques for Computational Chemistry *
     ****************************************************************
 

   Department of Chemistry                Institut fuer Physikalische Chemie
   University of Florida                  Universitaet Mainz
   Gainesville, FL 32611, USA             D-55099 Mainz, Germany

   Department of Chemistry                Fakultaet fuer Chemie und Biowiss.
   Johns Hopkins University               Karlsruher Institut fuer Technologie
   Baltimore, MD 21218, USA               D-76131 Karlsruhe, Germany

   Department of Chemistry                Department of Physical Chemistry
   Southern Methodist University          Eotvos Lorand University
   Dallas, TX 75275, USA                  H-1053 Budapest, Hungary

 
                       Version 2.1
 
                     cribbar042                                        
                     Mon May  3 07:59:39 CEST 2021                     
                     integer*8 version is running
 
********************************************************************************
*                          Input from ZMAT file                                *
********************************************************************************
Ketene -GS                                                                      
N            0.12804615    -0.00000000     0.00000000                           
H           -0.59303935     0.88580079    -1.53425197                           
H           -0.59303935    -1.77160157    -0.00000000                           
H           -0.59303935     0.88580079     1.53425197                           
                                                                                
*CFOUR(COORD=CARTESIAN,UNITS=BOHR                                               
       MEMORY=250,MEM_UNIT=GB,CC_PROG=ECC                                       
       FROZEN_CORE=1                                                            
       CALC=CC2,BASIS=AUG-PVTZ                                                  
       SCF_CONV=8,CC_CONV=7,ESTATE_CONV=5,ESTATE_MAXCYC=120                     
       EXCITE=EOMEE,ESTATE_SYM=5/5)                                             
                                                                                
********************************************************************************
    -------------------------------------------------------------------
                    CFOUR Control Parameters 
    -------------------------------------------------------------------
        External           Internal           Value            Units
          Name               Name
    -------------------------------------------------------------------
       ABCDTYPE             IABCDT         STANDARD    [  0]    ***   
       ANHARMONIC           IANHAR         OFF         [  0]    ***   
       ANH_ALGORIT          IANALG         STANDARD    [  0]    ***   
       ANH_DERIVAT          IANDER         SECOND      [  1]    ***   
       ANH_MODE             ANHMOD         VIBRATION   [  0]    ***   
       ANH_STEPSIZ          ICUBST             50000          x 10-6  
       ANH_SYMMETR          IANHSM         ABELIAN     [  0]    ***   
       AO_LADDERS           IAOLAD         SINGLEPASS  [  1]    ***   
       AV_SCF               IAVSCF         OFF         [  0]    ***   
       BASIS                IBASIS         AUG-PVTZ    [ 34]    ***   
       BOTHVECTORS          BOTHVC         OFF         [  0]    ***   
       BOX_POTENT           IPIAB          OFF         [  0]    ***   
       BREIT                IBREIT         OFF         [  0]    ***   
       BRUCK_CONV           IBRTOL          10D-  4             ***   
       BRUECKNER            IBRKNR         OFF         [  0]    ***   
       BUFFERSIZE           IBUFFS              4096            ***   
       CACHE_RECS           ICHREC             10               ***   
       CALCLEVEL            ICLLVL         CC2         [ 31]    ***   
       CCORBOPT             ICCORB         OFF         [  0]  x 0.01  
       CC_CONV              ICCCNV          10D-  7             ***   
       CC_EXPORDER          ICCEOR              5               ***   
       CC_EXTRAPOL          ICCEXT         DIIS        [  1]    ***   
       CC_GUESS             ICCGES         MP2         [  0]    ***   
       CC_MAXCYC            ICCCYC            100              cycles 
       CC_PROGRAM           ICCPRO         VCC         [  0]    ***   
       CHARGE               ICHRGE              0               ***   
       CHOLESKY             ICHOLE         OFF         [  0]    ***   
       CIS_CONV             ICISTL              5               ***   
       COMM_SIZE            IPSIZE            ***               ***   
       CONSTANT             ICONST         OLD         [  1]    ***   
       CONTINUUM            ICONTU         NONE        [  0]    ***   
       CONTRACTION          ICNTYP         GENERAL     [  1]    ***   
       COORDINATES          ICOORD         CARTESIAN   [  1]    ***   
       CPHF_CONVER          ICPHFT          10D- 16             ***   
       CPHF_MAXCYC          ICPHFC             64              cycles 
       CUBIC                ICUBIC         OFF         [  0]    ***   
       CURVILINEAR          ICURVY         OFF         [  0]    ***   
       DBOC                 IDBOC          OFF         [  0]    ***   
       DCT                  IDCT           OFF         [  0]    ***   
       DERIV_LEV            IDRLVL         ZERO        [  0]    ***   
       DEVMEM_SIZE          IDVMEM         *********           MByte  
       DIAG_MRCC            IEOMST          10D-  0             ***   
       DIFF_TYPE            IDIFTY         RELAXED     [  0]    ***   
       DIRECT               IDIRCT         OFF         [  0]    ***   
       DROPMO               IDRPMO      NONE         
       ECP                  IECP           OFF         [  0]    ***   
       EIGENVECTOR          IVEC                1               ***   
       EL_ANHARM            IELANH         OFF         [  0]    ***   
       EOMFOLLOW            IEOMSR         ENERGY      [  0]    ***   
       EOMIP                IEOMIP         OFF         [  0]    ***   
       EOMLEVEL             HBARFM         SAME        [  0]    ***   
       EOM_MRCC             IMRCCE         NEW         [  1]    ***   
       EOM_NONIT            EOMNON         OFF         [  0]    ***   
       EOM_NSING            IEOMSI          10D-  0             ***   
       EOM_NSTATES          IMRCCD         DAVIDSON    [  0]    ***   
       EOM_NTRIP            IEOMTR          10D-  0             ***   
       EOM_ORDER            IEXORD         ENERGY      [  0]    ***   
       EOM_PROPSTA          IEOMST              0               ***   
       ESTATE_CONV          IEXTOL          10D-  5             ***   
       ESTATE_DIAG          IEXDIG         ITERATIVE   [  0]    ***   
       ESTATE_LOCK          IESLOC         ON          [  1]    ***   
       ESTATE_MAXC          IEXMXC            120               ***   
       ESTATE_PROP          IEXPRP         OFF         [  0]    ***   
       ESTATE_SYM           IEXSYM   5,  5,
       EVAL_HESS            IRECAL              0            # of cyc.
       EXCITATION           IEXCIT              0               ***   
       EXCITE               IEXCIT         EOMEE       [  3]    ***   
       EXTERN_POT           IEXPOT         OFF         [  0]    ***   
       FCGRADNEW            IFCGNW         OFF         [  0]    ***   
       FC_FIELD             IFINFC              0             x 10-6  
       FD_CALTYPE           IFDCAL         GRADONLY    [  0]    ***   
       FD_PROJECT           IFDPRJ         OFF         [  1]    ***   
       FD_STEPSIZE          IDISFD              0            10-4 bohr
       FD_USEGROUP          IFDGRP         FULL        [  0]    ***   
       FILE_RECSIZ          IFLREC              4096           words  
       FINITE_PERT          IFIPER              0             x 10-6  
       FIXGEOM              IFIXGM         OFF         [  0]    ***   
       FOCK                 IFOCK          AO          [  1]    ***   
       FREQ_ALGORI          IVIALG         STANDARD    [  0]    ***   
       FROZEN_CORE          IFROCO         ON          [  1]    ***   
       GAMMA_ABCD           IGABCD         STORE       [  0]    ***   
       GAMMA_ABCI           IGABCI         STORE       [  0]    ***   
       GENBAS_1             IGNBS1              0               ***   
       GENBAS_2             IGNBS2              0               ***   
       GENBAS_3             IGNBS3              0               ***   
       GENBAS_4             IGNBS4              0               ***   
       GEO_CONV             ICONTL              5              H/bohr 
       GEO_MAXCYC           IOPTCY             50               ***   
       GEO_MAXSTEP          IMXSTP            300            millibohr
       GEO_METHOD           INR            SINGLE_POINT[  5]    ***   
       GIAO                 IGIAO          OFF         [  1]    ***   
       GIMIC                IGIMIC         OFF         [  0]    ***   
       GRID                 IGRID          OFF         [  0]    ***   
       GRID_ALGO            IGALGO         SERIAL      [  0]    ***   
       GUESS                IGUESS         MOREAD      [  0]    ***   
       HBAR                 IHBAR          ON          [  1]    ***   
       HESS_TYPE            IHESTP         SCF         [  0]    ***   
       HF2_FILE             IHF2Fl         USE         [  1]    ***   
       HFSTABILITY          ISTABL         OFF         [  0]    ***   
       INCORE               INCORE         OFF         [  0]    ***   
       INPUT_MRCC           IMRCC          ON          [  1]    ***   
       INTEGRALS            INTTYP         VMOL        [  1]    ***   
       JODA_PRINT           IJPRNT              0               ***   
       KEYWORD_OUT          IDMPKW         NO          [  0]    ***   
       LINDEP_TOL           ILINDP              8               ***   
       LINEQ_CONV           IZTACN          10D-  7           cycles  
       LINEQ_EXPOR          ILMAXD              5               ***   
       LINEQ_MAXCY          ILMAXC            100               ***   
       LINEQ_TYPE           ILTYPE         DIIS        [  1]    ***   
       LOCK_ORBOCC          ILOCOC         OFF         [  0]    ***   
       MEMORY_SIZE          IMEMSZ         *********           words  
       MEM_UNIT             IMEMU          GB          [  3]    ***   
       MRCC                 IMRCCC         OFF         [  0]    ***   
       MULTIPLICTY          IMULTP              1               ***   
       NACOUPLING           IVCOUP         OFF         [  0]    ***   
       NEGEVAL              IDIE           ABORT       [  0]    ***   
       NEWNORM              INEWNO         OFF         [  0]    ***   
       NON-HF               INONHF         OFF         [  0]    ***   
       NTOP_TAMP            ITOPT2             15               ***   
       NUC_MODEL            INUCMO         POINT       [  0]    ***   
       OCCUPATION           IOCCU   ESTIMATED BY SCF 
       OPEN-SHELL           IOPEN          SPIN-ORBITAL[  0]    ***   
       OPTVIB               IOPTVB         OFF         [  0]    ***   
       ORBITALS             IORBTP         STANDARD    [  0]    ***   
       PARALLEL             IPARAL         ON          [  1]    ***   
       PARA_INT             IPINTS         ON          [  1]    ***   
       PARA_PRINT           IPPRIN              0               ***   
       PERT_ORB             IPTORB         STANDARD    [  0]    ***   
       POINTS               IGRDFD              0               ***   
       PRINT                IPRNT               0               ***   
       PROPS                IPROPS         OFF         [  0]    ***   
       PROP_INTEGR          IINTYP         INTERNAL    [  0]    ***   
       PSI                  IPSI           OFF         [  0]    ***   
       QC_ALG               IQCALG         FLM         [  0]    ***   
       QC_LINALG            IQCLIN         TRIDIAG     [  2]    ***   
       QC_MAXCYC            IQCMAX          10D-100           cycles  
       QC_MAXSCFCY          IQCMSC          10D- 15           cycles  
       QC_RTRUST            IQCRTR          10D-  0           x 10-3  
       QC_SKIPSCF           IQCSKI         OFF         [  0]    ***   
       QC_START             IQCSTA          10D-  1             ***   
       QRHFGUESS            IQGUES         OFF         [  0]    ***   
       QUARTIC              IQUART         OFF         [  0]    ***   
       RAMAN_INT            IRAMIN         OFF         [  0]    ***   
       RAMAN_ORB            IRAMRE         UNRELAXED   [  0]    ***   
       RDO                  IRDOFM         OFF         [  0]    ***   
       REDUCE_REPR          REDREP         Ir          [  0]    ***   
       REFERENCE            IREFNC         RHF         [  0]    ***   
       RELATIVIST           IRELAT         OFF         [  0]    ***   
       RELAX_DENS           IRDENS         OFF         [  0]    ***   
       RESET_FLAGS          IRESET         OFF         [  0]    ***   
       RESTART_CC           ICCRES         OFF         [  0]    ***   
       ROT_EVEC             ROTVEC              0               ***   
       SAVE_INTS            ISVINT         OFF         [  0]    ***   
       SCALE_ON             ISTCRT              0               ***   
       SCF_CONV             ISCFCV          10D-  8             ***   
       SCF_DAMPING          IDAMP               0             x 10-3  
       SCF_EXPORDE          IRPPOR              6               ***   
       SCF_EXPSTAR          IRPPLS              8               ***   
       SCF_EXTRAPO          IRPP           ON          [  1]    ***   
       SCF_MAXCYC           ISCFCY            150              cycles 
       SCF_NOSTOP           ISCFST         OFF         [  0]    ***   
       SCF_PRINT            ISCFPR              0               ***   
       SCF_PROG             ISCFPR         SCF         [  0]    ***   
       SD_FIELD             IFINSD              0             x 10-6  
       SOPERT               IPERSO         OFF         [  0]    ***   
       SPHERICAL            IDFGHI         ON          [  1]    ***   
       SPINORBIT            ISOCAL         OFF         [  0]    ***   
       SPINROTATIO          ISRCON         OFF         [  0]    ***   
       SPIN_FLIP            ISPFLP         OFF         [  0]    ***   
       SPIN_ORBIT           ISPORB         OFF         [  0]    ***   
       SPIN_SCAL            ISCSMP         OFF         [  0]    ***   
       STEEPSCALE           ISTPSC              1000          x 10-3  
       SUBGROUP             ISUBGP         DEFAULT     [  0]    ***   
       SUBGRPAXIS           ISBXYZ         X           [  0]    ***   
       SYMMETRY             ISYM           ON          [  0]    ***   
       SYM_CHECK            ISYMCK         OVERRIDE    [  1]    ***   
       T3_EXTRAPOL          IT3EXT         OFF         [  0]    ***   
       T4_EXTRAPOL          IT4EXP         OFF         [  0]    ***   
       TAMP_SUM             IEVERY              5               ***   
       TESTSUITE            ITESTS         OFF         [  0]    ***   
       THERMOCH             ITHERM         OFF         [  0]    ***   
       TOL_CHOLESK          ITOLCH          10D-  4             ***   
       TRANGRAD             IRESRM         OFF         [  0]    ***   
       TRANS_INV            ITRAIN         USE         [  0]    ***   
       TREAT_PERT           ITREAT         SIMULTANEOUS[  0]    ***   
       TRIP_ALGORI          ITRALG         NORMAL      [  0]    ***   
       UIJ_THRESHO          IUIJTH              1               ***   
       UNITS                IUNITS         BOHR        [  1]    ***   
       UNOS                 IUNOS          OFF         [  0]    ***   
       UPDATE_HESS          IHUPDT         ON          [  1]    ***   
       VIBPHASE             ISETPH         STANDARD    [  0]    ***   
       VIBRATION            IVIB           NO          [  0]    ***   
       VIB_ALGORIT          IGEALG         STANDARD    [  0]    ***   
       VNATORB              IVNORB         OFF         [  0]    ***   
       VTRAN                IVTRAN         FULL/PARTIAL[  0]    ***   
       XFIELD               IXEFLD              0             x 10-6  
       XFORM_TOL            IXFTOL          10D- 11             ***   
       YFIELD               IYEFLD              0             x 10-6  
       ZFIELD               IZEFLD              0             x 10-6  
       ZSCALE_EXP           IZEXPS         OFF         [  0]    ***   
    -------------------------------------------------------------------
  @GETXYZ-I,     4 atoms read from ZMAT.
   Rotational constants (in cm-1): 
          6.3438946034             9.9707496147             9.9707496362
   Rotational constants (in MHz): 
     190185.2022875074        298915.5953860913        298915.5960318497
********************************************************************************
   The full molecular point group is C s .
   The largest Abelian subgroup of the full molecular point group is C s .
   The computational point group is C s .
********************************************************************************


 ----------------------------------------------------------------
         Coordinates used in calculation (QCOMP) 
 ----------------------------------------------------------------
 Z-matrix   Atomic            Coordinates (in bohr)
  Symbol    Number           X              Y              Z
 ----------------------------------------------------------------
     N         7         0.00000000     0.12804615     0.00000000
     H         1        -0.88580079    -0.59303935    -1.53425197
     H         1         1.77160157    -0.59303935     0.00000000
     H         1        -0.88580079    -0.59303935     1.53425197
 ----------------------------------------------------------------
 
   Interatomic distance matrix (Angstroms) 
 
                 N             H             H             H    
                [ 1]        [ 2]        [ 3]        [ 4]
  N    [ 1]     0.00000
  H    [ 2]     1.01217     0.00000
  H    [ 3]     1.01217     1.62378     0.00000
  H    [ 4]     1.01217     1.62378     1.62378     0.00000
 rotcon2
   Rotational constants (in cm-1): 
          9.9707496147             6.3438946034             9.9707496362
   Rotational constants (in MHz): 
     298915.5953860913        190185.2022875074        298915.5960318497
  There is   1 frozen-core orbital.
  There are  115 basis functions.
 @GEOPT-W, Archive file not created for single-point calculation.
 @CHECKOUT-I, Total execution time (CPU/WALL):        0.19/       1.71 seconds.
--executable xjoda finished with status     0 in        2.32 seconds (walltime).
 --invoking executable--
/home/CEISAM/blondel-a/soft/cfour2.1/cfour2.1-serial-mkl/bin/xvmol
 SERIAL VERSION OF MOLECULE STARTED
********************************************************************************
                    INPUT FROM MOL FILE
********************************************************************************
INTGRL        1    0    1    0    0    0    0    0    0                         
         *** CFOUR Program System (Release V0.1) ***                            
Ketene -GS                                                                      
    3    1 Z          0.10E-08              0    0                              
   9999.00      3.00                                                            
          7.00000000    1    4    1    1    1    1                              
N #1   0.000000000813628   0.128046149817296   0.000000000000000                
   11    5                                                                      
   11420.0000000000       5.230000000000000E-004 -1.150000000000000E-004        
  0.000000000000000E+000  0.000000000000000E+000  0.000000000000000E+000        
   1712.00000000000       4.045000000000000E-003 -8.950000000000000E-004        
  0.000000000000000E+000  0.000000000000000E+000  0.000000000000000E+000        
   389.300000000000       2.077500000000000E-002 -4.624000000000000E-003        
  0.000000000000000E+000  0.000000000000000E+000  0.000000000000000E+000        
   110.000000000000       8.072699999999999E-002 -1.852800000000000E-002        
  0.000000000000000E+000  0.000000000000000E+000  0.000000000000000E+000        
   35.5700000000000       0.233074000000000      -5.733900000000000E-002        
  0.000000000000000E+000  0.000000000000000E+000  0.000000000000000E+000        
   12.5400000000000       0.433501000000000      -0.132076000000000             
  0.000000000000000E+000  0.000000000000000E+000  0.000000000000000E+000        
   4.64400000000000       0.347472000000000      -0.172510000000000             
  0.000000000000000E+000  0.000000000000000E+000  0.000000000000000E+000        
   1.29300000000000       4.126200000000000E-002  0.151814000000000             
   1.00000000000000       0.000000000000000E+000  0.000000000000000E+000        
  0.511800000000000      -8.508000000000000E-003  0.599944000000000             
  0.000000000000000E+000  0.000000000000000E+000  0.000000000000000E+000        
  0.178700000000000       2.384000000000000E-003  0.387462000000000             
  0.000000000000000E+000   1.00000000000000       0.000000000000000E+000        
  5.760000000000000E-002  0.000000000000000E+000  0.000000000000000E+000        
  0.000000000000000E+000  0.000000000000000E+000   1.00000000000000             
    6    4                                                                      
   26.6300000000000       1.467000000000000E-002  0.000000000000000E+000        
  0.000000000000000E+000  0.000000000000000E+000                                
   5.94800000000000       9.176400000000000E-002  0.000000000000000E+000        
  0.000000000000000E+000  0.000000000000000E+000                                
   1.74200000000000       0.298683000000000       0.000000000000000E+000        
  0.000000000000000E+000  0.000000000000000E+000                                
  0.555000000000000       0.498487000000000        1.00000000000000             
  0.000000000000000E+000  0.000000000000000E+000                                
  0.172500000000000       0.337023000000000       0.000000000000000E+000        
   1.00000000000000       0.000000000000000E+000                                
  4.910000000000000E-002  0.000000000000000E+000  0.000000000000000E+000        
  0.000000000000000E+000   1.00000000000000                                     
    3    3                                                                      
   1.65400000000000        1.00000000000000       0.000000000000000E+000        
  0.000000000000000E+000                                                        
  0.469000000000000       0.000000000000000E+000   1.00000000000000             
  0.000000000000000E+000                                                        
  0.151000000000000       0.000000000000000E+000  0.000000000000000E+000        
   1.00000000000000                                                             
    2    2                                                                      
   1.09300000000000        1.00000000000000       0.000000000000000E+000        
  0.364000000000000       0.000000000000000E+000   1.00000000000000             
          1.00000000    1    3    1    1    1                                   
H #2  -0.885800790434946  -0.593039348648921  -1.534251970000000                
    6    4                                                                      
   33.8700000000000       6.068000000000000E-003  0.000000000000000E+000        
  0.000000000000000E+000  0.000000000000000E+000                                
   5.09500000000000       4.530800000000000E-002  0.000000000000000E+000        
  0.000000000000000E+000  0.000000000000000E+000                                
   1.15900000000000       0.202822000000000       0.000000000000000E+000        
  0.000000000000000E+000  0.000000000000000E+000                                
  0.325800000000000       0.503903000000000        1.00000000000000             
  0.000000000000000E+000  0.000000000000000E+000                                
  0.102700000000000       0.383421000000000       0.000000000000000E+000        
   1.00000000000000       0.000000000000000E+000                                
  2.526000000000000E-002  0.000000000000000E+000  0.000000000000000E+000        
  0.000000000000000E+000   1.00000000000000                                     
    3    3                                                                      
   1.40700000000000        1.00000000000000       0.000000000000000E+000        
  0.000000000000000E+000                                                        
  0.388000000000000       0.000000000000000E+000   1.00000000000000             
  0.000000000000000E+000                                                        
  0.102000000000000       0.000000000000000E+000  0.000000000000000E+000        
   1.00000000000000                                                             
    2    2                                                                      
   1.05700000000000        1.00000000000000       0.000000000000000E+000        
  0.247000000000000       0.000000000000000E+000   1.00000000000000             
          1.00000000    1    3    1    1    1                                   
H #3   1.771601569565054  -0.593039353250269   0.000000000000000                
    6    4                                                                      
   33.8700000000000       6.068000000000000E-003  0.000000000000000E+000        
  0.000000000000000E+000  0.000000000000000E+000                                
   5.09500000000000       4.530800000000000E-002  0.000000000000000E+000        
  0.000000000000000E+000  0.000000000000000E+000                                
   1.15900000000000       0.202822000000000       0.000000000000000E+000        
  0.000000000000000E+000  0.000000000000000E+000                                
  0.325800000000000       0.503903000000000        1.00000000000000             
  0.000000000000000E+000  0.000000000000000E+000                                
  0.102700000000000       0.383421000000000       0.000000000000000E+000        
   1.00000000000000       0.000000000000000E+000                                
  2.526000000000000E-002  0.000000000000000E+000  0.000000000000000E+000        
  0.000000000000000E+000   1.00000000000000                                     
    3    3                                                                      
   1.40700000000000        1.00000000000000       0.000000000000000E+000        
  0.000000000000000E+000                                                        
  0.388000000000000       0.000000000000000E+000   1.00000000000000             
  0.000000000000000E+000                                                        
  0.102000000000000       0.000000000000000E+000  0.000000000000000E+000        
   1.00000000000000                                                             
    2    2                                                                      
   1.05700000000000        1.00000000000000       0.000000000000000E+000        
  0.247000000000000       0.000000000000000E+000   1.00000000000000             
FINISH                                                                          
 
********************************************************************************
 ONE- AND TWO-ELECTRON INTEGRALS OVER SYMMETRY-ADAPTED AOS ARE CALCULATED.

  SPHERICAL HARMONICS ARE USED.
  
  INTEGRALS LESS THAN  0.10E-13 ARE NEGLECTED.

  NUCLEAR REPULSION ENERGY :   11.9567463556 A.U.
  @MOLECU-I, ONE ELECTRON INTEGRALS (CPU/WALL):        0.04/       0.07 SECONDS.
  @TWOEL-I,    3342951 INTEGRALS OF SYMMETRY TYPE  I I I I
  @TWOEL-I,    4833618 INTEGRALS OF SYMMETRY TYPE  I J I J
  @TWOEL-I,    2499632 INTEGRALS OF SYMMETRY TYPE  I I J J
  @TWOEL-I, TOTAL NUMBER OF 2-E INTEGRALS   10676201.
  @MOLECU-I, TWO ELECTRON INTEGRALS (CPU/WALL):       56.50/       3.95 SECONDS.
 @CHECKOUT-I, Total execution time (CPU/WALL):       56.56/       4.06 seconds.

Running with 20 threads/proc

--executable xvmol finished with status     0 in        4.62 seconds (walltime).
 --invoking executable--
/home/CEISAM/blondel-a/soft/cfour2.1/cfour2.1-serial-mkl/bin/xvmol2ja
 @GETMEM-I,  Allocated  238418 MB of main memory.
 @CHECKOUT-I, Total execution time (CPU/WALL):        0.22/       0.06 seconds.
--executable xvmol2ja finished with status     0 in        0.61 seconds (walltime).
 --invoking executable--
/home/CEISAM/blondel-a/soft/cfour2.1/cfour2.1-serial-mkl/bin/xvscf
  There are  115 functions in the AO basis.

  There are 2 irreducible representations.

       Irrep        # of functions
         1                 69
         2                 46


  Parameters for SCF calculation: 
        SCF reference function:  RHF  
  Maximum number of iterations:  150
     Full symmetry point group: C s 
     Computational point group: C s 
        Initial density matrix: MOREAD                 
     SCF convergence tolerance: 10**(- 8)
  DIIS convergence acceleration:  ON
          Latest start for DIIS:   8
                     DIIS order:   6

  Memory information:     630954 words required.
  Fock matrices are constructed from AO integral file.
 @GETMEM-I,  Allocated       4 MB of main memory.
  Initialization and symmetry analysis required      0.003 seconds.

  @INITGES-I, Occupancies from core Hamiltonian:

          Alpha population by irrep:   4    1
           Beta population by irrep:   4    1


 total no. of electrons in initial guess :  0.000000000000000E+000
  --------------------------------------------------------------------
  Iteration         Total Energy            Largest Density Difference
  --------------------------------------------------------------------
       0            11.956746355615010              0.0000000000D+00
   current occupation vector 
     4  1
     4  1
       1           -41.865063074969086              0.1391764487D+02
   current occupation vector 
     4  1
     4  1
       2           -44.904912095069619              0.4761708927D+02
   current occupation vector 
     4  1
     4  1
       3           -51.531539540659253              0.4763759104D+02
   current occupation vector 
     4  1
     4  1
       4           -50.293397812175243              0.1978778233D+02
   current occupation vector 
     4  1
     4  1
       5           -53.286567368057803              0.1979479115D+02
   current occupation vector 
     4  1
     4  1
       6           -53.108948209784586              0.1719316638D+02
   current occupation vector 
     4  1
     4  1
       7           -54.519711956132127              0.1719887406D+02
   current occupation vector 
     4  1
     4  1
       8           -54.056030561222158              0.1490474109D+02
   current occupation vector 
     4  1
     4  1
       9           -56.154282633761511              0.1490168581D+02
   current occupation vector 
     4  1
     4  1
      10           -56.219538381775479              0.3176854882D+00
   current occupation vector 
     4  1
     4  1
      11           -56.220281905504464              0.5244201945D-01
   current occupation vector 
     4  1
     4  1
      12           -56.220307545537565              0.5080448674D-02
   current occupation vector 
     4  1
     4  1
      13           -56.220311337330685              0.1502570704D-02
   current occupation vector 
     4  1
     4  1
      14           -56.220311814981130              0.7259174141D-03
   current occupation vector 
     4  1
     4  1
      15           -56.220311822131563              0.1172147850D-03
   current occupation vector 
     4  1
     4  1
      16           -56.220311822197971              0.1720163345D-04
   current occupation vector 
     4  1
     4  1
      17           -56.220311822201879              0.3163553663D-05
   current occupation vector 
     4  1
     4  1
      18           -56.220311822202518              0.9612642926D-06
   current occupation vector 
     4  1
     4  1
      19           -56.220311822202319              0.1760423642D-06
   current occupation vector 
     4  1
     4  1
      20           -56.220311822202902              0.3971445728D-07
   current occupation vector 
     4  1
     4  1

  SCF has converged.

 Density matrix saved to file den.dat
 total electron number:   10.0000000000000     
     E(SCF)=       -56.220311822202959              0.2963929796D-08

  Eigenvector printing suppressed.

 @PUTMOS-I, Writing converged MOs to NEWMOS. 
 @PUTMOS-I, Symmetry   1 Full Blocks 17 Partial Blocksize   1
 @PUTMOS-I, Symmetry   2 Full Blocks 11 Partial Blocksize   2
 @PUTFOCK-I, Writing converged Fock matrix to NEWFOCK. 
 @PUTFOCK-I, Symmetry   1 Full Blocks 17 Partial Blocksize   1
 @PUTFOCK-I, Symmetry   2 Full Blocks 11 Partial Blocksize   2


 
  ORBITAL EIGENVALUES (ALPHA)  (1H = 27.2113834 eV)

       MO #        E(hartree)               E(eV)           FULLSYM    COMPSYM
       ----   --------------------   --------------------   -------   ---------
    1     1         -15.5418124102        -422.9142162242     A'        A'  (1)
    2     2          -1.1425998454         -31.0917224658     A'        A'  (1)
    3     3          -0.6286565533         -17.1066144997    E          A'  (1)
    4    70          -0.6286565521         -17.1066144669    E          A'' (2)
    5     4          -0.4296370029         -11.6910172088     A'        A'  (1)
  +++++++++++++++++++++++++++++++++++++++++++++++++++++++++++++++++++++++++++++
    6     5           0.0295308474           0.8035752104     A'        A'  (1)
    7     6           0.0486844549           1.3247713671    E          A'  (1)
    8    71           0.0486844549           1.3247713675    E          A'' (2)
    9     7           0.1178575526           3.2070670505     A'        A'  (1)
   10     8           0.1524463098           4.1482749844     A'        A'  (1)
   11    72           0.1623443834           4.4176152586    E          A'' (2)
   12     9           0.1623443834           4.4176152586    E          A'  (1)
   13    73           0.2214798343           6.0267726854    E          A'' (2)
   14    10           0.2214798345           6.0267726912    E          A'  (1)
   15    11           0.2353183857           6.4033388143    E          A'  (1)
   16    74           0.2353183858           6.4033388164    E          A'' (2)
   17    12           0.2545701920           6.9272070977     A'        A'  (1)
   18    75           0.3560054232           9.6874000642     A''       A'' (2)
   19    13           0.3579574445           9.7405172628     A'        A'  (1)
   20    76           0.3706701317          10.0864470676    E          A'' (2)
   21    14           0.3706701317          10.0864470684    E          A'  (1)
   22    15           0.4282226757          11.6525314084     A'        A'  (1)
   23    77           0.4608828877          12.5412609609    E          A'' (2)
   24    16           0.4608828881          12.5412609707    E          A'  (1)
   25    78           0.4868631907          13.2482209454    E          A'' (2)
   26    17           0.4868631909          13.2482209516    E          A'  (1)
   27    18           0.5637735880          15.3410592535     A'        A'  (1)
   28    19           0.6020511996          16.3826460189    E          A'  (1)
   29    79           0.6020511997          16.3826460225    E          A'' (2)
   30    20           0.7493136335          20.3898605677     A'        A'  (1)
   31    80           0.7861059225          21.3910296503    E          A'' (2)
   32    21           0.7861059232          21.3910296692    E          A'  (1)
   33    22           0.8110851205          22.0707481837     A'        A'  (1)
   34    23           0.8829693523          24.0268175765     A'        A'  (1)
   35    81           0.9025380791          24.5593097037     A''       A'' (2)
   36    24           0.9146371599          24.8885424288    E          A'  (1)
   37    82           0.9146371600          24.8885424317    E          A'' (2)
   38    83           0.9803656726          26.6771061886    E          A'' (2)
   39    25           0.9803656732          26.6771062045    E          A'  (1)
   40    26           1.0350123842          28.1641188094     A'        A'  (1)
   41    84           1.0357092113          28.1830804398    E          A'' (2)
   42    27           1.0357092116          28.1830804482    E          A'  (1)
   43    85           1.0813617208          29.4253483783     A''       A'' (2)
   44    28           1.1037747485          30.0352378689    E          A'  (1)
   45    86           1.1037747486          30.0352378720    E          A'' (2)
   46    87           1.1422410518          31.0819591955    E          A'' (2)
   47    29           1.1422410519          31.0819591987    E          A'  (1)
   48    30           1.1856281265          32.2625815207     A'        A'  (1)
   49    31           1.2193659292          33.1806338041    E          A'  (1)
   50    88           1.2193659295          33.1806338115    E          A'' (2)
   51    32           1.3222067476          35.9790747434     A'        A'  (1)
   52    33           1.3625159898          37.0759449858    E          A'  (1)
   53    89           1.3625159903          37.0759449998    E          A'' (2)
   54    34           1.6165205918          43.9877615970     A'        A'  (1)
   55    90           1.7593628994          47.8746983961    E          A'' (2)
   56    35           1.7593628999          47.8746984102    E          A'  (1)
   57    91           1.7631080382          47.9766088040     A''       A'' (2)
   58    92           1.8643546117          50.7316681314    E          A'' (2)
   59    36           1.8643546119          50.7316681380    E          A'  (1)
   60    37           1.8644476682          50.7342003295     A'        A'  (1)
   61    38           2.0031052110          54.5072638873     A'        A'  (1)
   62    93           2.0409913383          55.5381978238    E          A'' (2)
   63    39           2.0409913406          55.5381978856    E          A'  (1)
   64    94           2.0490101441          55.7564006217    E          A'' (2)
   65    40           2.0490101443          55.7564006278    E          A'  (1)
   66    41           2.2726130498          61.8409450169     A'        A'  (1)
   67    95           2.3430713613          63.7582131454     A''       A'' (2)
   68    42           2.3733696997          64.5826728493    E          A'  (1)
   69    96           2.3733697014          64.5826728952    E          A'' (2)
   70    97           2.4368906211          66.3111649959    E          A'' (2)
   71    43           2.4368906215          66.3111650064    E          A'  (1)
   72    44           2.4734745046          67.3066630757     A'        A'  (1)
   73    45           3.3869928657          92.1647614417     A'        A'  (1)
   74    98           3.5605213836          96.8867124718    E          A'' (2)
   75    46           3.5605213849          96.8867125072    E          A'  (1)
   76    99           3.9699573721         108.0280321328    E          A'' (2)
   77    47           3.9699573726         108.0280321481    E          A'  (1)
   78    48           4.0436855980         110.0342791552     A'        A'  (1)
   79    49           4.1399646204         112.6541645475    E          A'  (1)
   80   100           4.1399646205         112.6541645519    E          A'' (2)
   81   101           4.2137167636         114.6610623945     A''       A'' (2)
   82   102           4.2212877681         114.8670798998     A''       A'' (2)
   83   103           4.2604183337         115.9318767224    E          A'' (2)
   84    50           4.2604183340         115.9318767303    E          A'  (1)
   85    51           4.3219358381         117.6058531216     A'        A'  (1)
   86   104           4.3592129443         118.6202147501    E          A'' (2)
   87    52           4.3592129450         118.6202147699    E          A'  (1)
   88    53           4.4723196127         121.6980036678     A'        A'  (1)
   89   105           4.5493058086         123.7929045619    E          A'' (2)
   90    54           4.5493058110         123.7929046278    E          A'  (1)
   91    55           4.6910935841         127.6511460809     A'        A'  (1)
   92   106           4.7448594001         129.1141883159    E          A'' (2)
   93    56           4.7448594005         129.1141883250    E          A'  (1)
   94   107           4.9404929555         134.4376479977    E          A'' (2)
   95    57           4.9404929573         134.4376480463    E          A'  (1)
   96   108           4.9837684891         135.6152351336     A''       A'' (2)
   97   109           5.0622568238         137.7510113010    E          A'' (2)
   98    58           5.0622568250         137.7510113338    E          A'  (1)
   99    59           5.0663961540         137.8636482025     A'        A'  (1)
  100    60           5.2536635728         142.9594537332     A'        A'  (1)
  101   110           5.6731630902         154.3746159369    E          A'' (2)
  102    61           5.6731630915         154.3746159748    E          A'  (1)
  103    62           5.7296352318         155.9113010352     A'        A'  (1)
  104    63           5.8986568124         160.5106120682    E          A'  (1)
  105   111           5.8986568161         160.5106121673    E          A'' (2)
  106    64           6.0582287033         164.8527839697     A'        A'  (1)
  107   112           6.3272245143         172.1725321172    E          A'' (2)
  108    65           6.3272245203         172.1725322800    E          A'  (1)
  109   113           6.4232085404         174.7843902523     A''       A'' (2)
  110    66           6.6288262083         180.3795314457     A'        A'  (1)
  111   114           6.9387633164         188.8133489252    E          A'' (2)
  112    67           6.9387633209         188.8133490462    E          A'  (1)
  113   115           7.6872966701         209.1819769986    E          A'' (2)
  114    68           7.6872966748         209.1819771275    E          A'  (1)
  115    69          17.2425614528         469.1939504897     A'        A'  (1)


  VSCF finished.

 @CHECKOUT-I, Total execution time (CPU/WALL):       61.54/       3.37 seconds.
--executable xvscf finished with status     0 in        3.94 seconds (walltime).
 --invoking executable--
/home/CEISAM/blondel-a/soft/cfour2.1/cfour2.1-serial-mkl/bin/xvtran
 @GETMEM-I,  Allocated  238418 MB of main memory.
  Full RHF integral transformation
  The following   1 MOs will be dropped:
    1
  There are 114 active molecular orbitals.
  Transformation of IIII integrals :
  1 pass through the AO integral file was required.
     3342951 AO integrals were read.
     3337852 MO integrals were written to HF2.
  Transformation of IIJJ integrals :
  1 pass through the AO integral file was required.
     2499632 AO integrals were read.
     2536026 MO integrals were written to HF2.
  Transformation of IJIJ integrals :
  1 pass through the AO integral file was required.
     4833618 AO integrals were read.
     4893756 MO integrals were written to HF2.
  Summary of active molecular orbitals: 
------------------------------------------------------------------------
 
  Index      Eigenvalue    Symmetry    Index      Eigenvalue    Symmetry
------------------------------------------------------------------------
     1        -1.1425998        1        58         5.0622568        1
     2        -0.6286566        1        59         5.0663962        1
     3        -0.4296370        1        60         5.2536636        1
     4        -0.6286566        2        61         5.6731631        1
     5         0.0295308        1        62         5.7296352        1
     6         0.0486845        1        63         5.8986568        1
     7         0.1178576        1        64         6.0582287        1
     8         0.1524463        1        65         6.3272245        1
     9         0.1623444        1        66         6.6288262        1
    10         0.2214798        1        67         6.9387633        1
    11         0.2353184        1        68         7.6872967        1
    12         0.2545702        1        69        17.2425615        1
    13         0.3579574        1        70         0.0486845        2
    14         0.3706701        1        71         0.1623444        2
    15         0.4282227        1        72         0.2214798        2
    16         0.4608829        1        73         0.2353184        2
    17         0.4868632        1        74         0.3560054        2
    18         0.5637736        1        75         0.3706701        2
    19         0.6020512        1        76         0.4608829        2
    20         0.7493136        1        77         0.4868632        2
    21         0.7861059        1        78         0.6020512        2
    22         0.8110851        1        79         0.7861059        2
    23         0.8829694        1        80         0.9025381        2
    24         0.9146372        1        81         0.9146372        2
    25         0.9803657        1        82         0.9803657        2
    26         1.0350124        1        83         1.0357092        2
    27         1.0357092        1        84         1.0813617        2
    28         1.1037747        1        85         1.1037747        2
    29         1.1422411        1        86         1.1422411        2
    30         1.1856281        1        87         1.2193659        2
    31         1.2193659        1        88         1.3625160        2
    32         1.3222067        1        89         1.7593629        2
    33         1.3625160        1        90         1.7631080        2
    34         1.6165206        1        91         1.8643546        2
    35         1.7593629        1        92         2.0409913        2
    36         1.8643546        1        93         2.0490101        2
    37         1.8644477        1        94         2.3430714        2
    38         2.0031052        1        95         2.3733697        2
    39         2.0409913        1        96         2.4368906        2
    40         2.0490101        1        97         3.5605214        2
    41         2.2726130        1        98         3.9699574        2
    42         2.3733697        1        99         4.1399646        2
    43         2.4368906        1       100         4.2137168        2
    44         2.4734745        1       101         4.2212878        2
    45         3.3869929        1       102         4.2604183        2
    46         3.5605214        1       103         4.3592129        2
    47         3.9699574        1       104         4.5493058        2
    48         4.0436856        1       105         4.7448594        2
    49         4.1399646        1       106         4.9404930        2
    50         4.2604183        1       107         4.9837685        2
    51         4.3219358        1       108         5.0622568        2
    52         4.3592129        1       109         5.6731631        2
    53         4.4723196        1       110         5.8986568        2
    54         4.5493058        1       111         6.3272245        2
    55         4.6910936        1       112         6.4232085        2
    56         4.7448594        1       113         6.9387633        2
    57         4.9404930        1       114         7.6872967        2
------------------------------------------------------------------------
  -1.14259984539450      -0.628656553333059      -0.429637002901667     
 -0.628656552127442       2.953084738794478E-002  4.868445486946645E-002
  0.117857552604606       0.152446309819418       0.162344383367206     
  0.221479834472107       0.235318385698889       0.254570192035022     
  0.357957444487186       0.370670131693831       0.428222675674843     
  0.460882888104515       0.486863190925778       0.563773587987871     
  0.602051199604740       0.749313633487958       0.786105923200281     
  0.811085120492176       0.882969352321545       0.914637159860141     
  0.980365673157805        1.03501238417180        1.03570921161675     
   1.10377474850832        1.14224105190938        1.18562812652606     
   1.21936592918944        1.32220674761263        1.36251598975232     
   1.61652059178148        1.75936289994842        1.86435461190192     
   1.86444766823038        2.00310521101007        2.04099134061744     
   2.04901014432784        2.27261304976086        2.37336969972934     
   2.43689062153241        2.47347450463307        3.38699286570332     
   3.56052138485639        3.96995737262354        4.04368559796359     
   4.13996462037587        4.26041833398029        4.32193583813080     
   4.35921294504499        4.47231961267500        4.54930581102895     
   4.69109358405218        4.74485940045864        4.94049295730786     
   5.06225682497958        5.06639615398934        5.25366357276704     
   5.67316309154552        5.72963523181901        5.89865681243356     
   6.05822870327492        6.32722452030757        6.62882620828960     
   6.93876332087523        7.68729667479983        17.2425614527802     
  4.868445488343461E-002  0.162344383363860       0.221479834260407     
  0.235318385775082       0.356005423238211       0.370670131662451     
  0.460882887744706       0.486863190696478       0.602051199738943     
  0.786105922505390       0.902538079106786       0.914637159965655     
  0.980365672573003        1.03570921130785        1.08136172078423     
   1.10377474862212        1.14224105178966        1.21936592946262     
   1.36251599026643        1.75936289942886        1.76310803823233     
   1.86435461165859        2.04099133834378        2.04901014410284     
   2.34307136128094        2.37336970141658        2.43689062114808     
   3.56052138355282        3.96995737205893        4.13996462054001     
   4.21371676364160        4.22128776811048        4.26041833369078     
   4.35921294432028        4.54930580860907        4.74485940012527     
   4.94049295552332        4.98376848909574        5.06225682377511     
   5.67316309015477        5.89865681607707        6.32722451432589     
   6.42320854044756        6.93876331642752        7.68729667006208     
 @CHECKOUT-I, Total execution time (CPU/WALL):       30.45/       6.02 seconds.
--executable xvtran finished with status     0 in        6.57 seconds (walltime).
 --invoking executable--
/home/CEISAM/blondel-a/soft/cfour2.1/cfour2.1-serial-mkl/bin/xintprc
 @GETMEM-I,  Allocated  238418 MB of main memory.
  @GMOIAA-I, Processing MO integrals for spin case AA.
  @GMOIAA-I, Generation of integral list completed.
                      TYPE                NUMBER
                      ----               --------
                      PPPP               9337065
                      PPPH               1348200
                      PPHH                 49020
                      PHPH                 31035
                      PHHH                  2280
                      HHHH                    34

                     TOTAL              10767634

  @FORMT2-I, Second-order MP correlation energies:
            ------------------------------------------------
            E(SCF)                  =    -56.220311822203 a.u.
            E2(AA)                  =     -0.026559018265 a.u.
            E2(AB)                  =     -0.187110540879 a.u.
            E2(TOT)                 =     -0.240228577408 a.u.
            Total MP2 energy        =    -56.460540399611 a.u.
            ------------------------------------------------
   Largest T2 amplitudes for spin case AB:
       _       _                 _       _                 _       _
   i   j   a   b             i   j   a   b             i   j   a   b
-----------------------------------------------------------------------------
[  4   4  76  76]-0.01624 [  2   2  16  16]-0.01624 [  3   3  13  13]-0.01521
[  3   3  20  20]-0.01367 [  3   3  18  18]-0.01327 [  4   4  76  72]-0.01213
[  4   4  72  76]-0.01213 [  2   2  16  10]-0.01213 [  2   2  10  16]-0.01213
[  3   3  13   7]-0.01209 [  3   3   7  13]-0.01209 [  4   3  76  13]-0.01167
[  3   4  13  76]-0.01167 [  3   2  13  16]-0.01167 [  2   3  16  13]-0.01167
-----------------------------------------------------------------------------
   Norm of T2AB vector (    97600 symmetry allowed elements):  0.2260116526.
-----------------------------------------------------------------------------
 @CHECKOUT-I, Total execution time (CPU/WALL):        5.27/       2.68 seconds.
--executable xintprc finished with status     0 in        3.24 seconds (walltime).
  calling xvcc 
 --invoking executable--
/home/CEISAM/blondel-a/soft/cfour2.1/cfour2.1-serial-mkl/bin/xvcc
 @GETMEM-I,  Allocated  238418 MB of main memory.
   CC2 energy will be calculated.
   The total correlation energy is -0.240228577408 a.u.
   The total correlation energy is -0.240176391309 a.u.
  Convergence information after     1 iterations: 
  Largest element of residual vector : -0.80546382E-02.
  Largest element of DIIS residual   : -0.80546382E-02.
   The total correlation energy is -0.241515442868 a.u.
  Convergence information after     2 iterations: 
  Largest element of residual vector : -0.25723881E-02.
  Largest element of DIIS residual   : -0.19297160E-02.
   The total correlation energy is -0.241699212485 a.u.
  Convergence information after     3 iterations: 
  Largest element of residual vector : -0.19740165E-02.
  Largest element of DIIS residual   : -0.11186018E-02.
   The total correlation energy is -0.241856850309 a.u.
  Convergence information after     4 iterations: 
  Largest element of residual vector : -0.34899880E-03.
  Largest element of DIIS residual   : -0.11336341E-03.
   The total correlation energy is -0.241859025758 a.u.
  Convergence information after     5 iterations: 
  Largest element of residual vector : -0.16070563E-03.
  Largest element of DIIS residual   :  0.87399853E-04.
   The total correlation energy is -0.241858059964 a.u.
  Convergence information after     6 iterations: 
  Largest element of residual vector :  0.35690504E-04.
  Largest element of DIIS residual   :  0.27051312E-04.
   The total correlation energy is -0.241858387200 a.u.
  Convergence information after     7 iterations: 
  Largest element of residual vector :  0.27312042E-04.
  Largest element of DIIS residual   :  0.14894353E-04.
   The total correlation energy is -0.241858477069 a.u.
  Convergence information after     8 iterations: 
  Largest element of residual vector :  0.71301628E-05.
  Largest element of DIIS residual   :  0.40568583E-05.
   The total correlation energy is -0.241858617331 a.u.
  Convergence information after     9 iterations: 
  Largest element of residual vector :  0.26887186E-05.
  Largest element of DIIS residual   : -0.12317553E-05.
   The total correlation energy is -0.241858630364 a.u.
  Convergence information after    10 iterations: 
  Largest element of residual vector : -0.54873291E-06.
  Largest element of DIIS residual   :  0.37472992E-06.
   The total correlation energy is -0.241858639515 a.u.
  Convergence information after    11 iterations: 
  Largest element of residual vector : -0.17672000E-06.
  Largest element of DIIS residual   : -0.94761952E-07.
   The total correlation energy is -0.241858645016 a.u.
  Convergence information after    12 iterations: 
  Largest element of residual vector : -0.12423960E-06.
  Largest element of DIIS residual   : -0.43786338E-07.
   The total correlation energy is -0.241858647794 a.u.
  Convergence information after    13 iterations: 
  Largest element of residual vector : -0.30101765E-07.
  Largest element of DIIS residual   :  0.80756720E-08.
  Amplitude equations converged in    13iterations.
   The total correlation energy is -0.241858648268 a.u.
   The CC iterations have converged.

   Largest T1 amplitudes for spin case AA:
   i       a                 i       a                 i       a    
-----------------------------------------------------------------------------
[  3       7    ]-0.01479 [  3      12    ] 0.00964 [  3      13    ]-0.00942
[  4      92    ] 0.00538 [  2      39    ] 0.00538 [  3      18    ]-0.00487
[  3       5    ] 0.00391 [  3      48    ] 0.00385 [  4      82    ] 0.00373
[  2      25    ] 0.00373 [  3      32    ] 0.00349 [  3      37    ] 0.00343
[  2      17    ] 0.00338 [  4      77    ] 0.00338 [  2      27    ] 0.00319
-----------------------------------------------------------------------------
   Norm of T1AA vector (      240 symmetry allowed elements):  0.0280194080.
-----------------------------------------------------------------------------
   Largest T2 amplitudes for spin case AB:
       _       _                 _       _                 _       _
   i   j   a   b             i   j   a   b             i   j   a   b
-----------------------------------------------------------------------------
[  4   4  76  76]-0.01642 [  2   2  16  16]-0.01642 [  3   3  13  13]-0.01617
[  3   3  20  20]-0.01388 [  3   3  13   7]-0.01343 [  3   3   7  13]-0.01343
[  3   3  18  18]-0.01335 [  3   3   7   7]-0.01240 [  4   4  76  72]-0.01227
[  4   4  72  76]-0.01227 [  2   2  16  10]-0.01227 [  2   2  10  16]-0.01227
[  4   3  76  13]-0.01211 [  3   4  13  76]-0.01211 [  3   2  13  16]-0.01211
-----------------------------------------------------------------------------
   Norm of T2AB vector (    97600 symmetry allowed elements):  0.2284570363.
-----------------------------------------------------------------------------
       Summary of iterative solution of CC equations 
      -----------------------------------------------------------
                       Correlation           Total
       Iteration         Energy              Energy
      -----------------------------------------------------------
            0        -0.240228577408     -56.460540399611  DIIS 
            1        -0.240176391309     -56.460488213512  DIIS 
            2        -0.241515442868     -56.461827265071  DIIS 
            3        -0.241699212485     -56.462011034688  DIIS 
            4        -0.241856850309     -56.462168672512  DIIS 
            5        -0.241859025758     -56.462170847961  DIIS 
            6        -0.241858059964     -56.462169882167  DIIS 
            7        -0.241858387200     -56.462170209403  DIIS 
            8        -0.241858477069     -56.462170299272  DIIS 
            9        -0.241858617331     -56.462170439534  DIIS 
           10        -0.241858630364     -56.462170452567  DIIS 
           11        -0.241858639515     -56.462170461718  DIIS 
           12        -0.241858645016     -56.462170467219  DIIS 
           13        -0.241858648268     -56.462170470471  DIIS 
      -----------------------------------------------------------
      A miracle has come to pass. The CC iterations have converged.
      The reference energy is       -56.22031182220296 a.u.
      The correlation energy is      -0.24185864826810 a.u.
      The total energy is           -56.46217047047106 a.u.
 @CHECKOUT-I, Total execution time (CPU/WALL):      102.07/       5.18 seconds.
--executable xvcc finished with status     0 in        5.74 seconds (walltime).
 --invoking executable--
/home/CEISAM/blondel-a/soft/cfour2.1/cfour2.1-serial-mkl/bin/xlambda
 @GETMEM-I,  Allocated  238418 MB of main memory.
 Hbar is calculated for a CC2 wave function.
 Calculation of Hbar completed.
 @CHECKOUT-I, Total execution time (CPU/WALL):       20.43/       1.09 seconds.
--executable xlambda finished with status     0 in        1.64 seconds (walltime).
 --invoking executable--
/home/CEISAM/blondel-a/soft/cfour2.1/cfour2.1-serial-mkl/bin/xvee
 @GETMEM-I,  Allocated  238418 MB of main memory.
  cc2 and ccprog  T                     0
  EOMEE-CC2 excitation energies will be evaluated.
  @SETMET-I, VPROP property integrals are used.
  @SETMET-I, A total of  10 target states will be studied.
  Summary of active alpha molecular orbitals:
------------------------------------------------------------------------------
Orbital      Sym   Eigenvalue  <xx>     <yy>     <zz>     <xy>     <xz>     <yz>
        SCF
  #  position
------------------------------------------------------------------------------
   1      2    1      -1.1426   0.000    0.000    0.000    0.000    0.000    0.000
   2      3    1      -0.6287   0.000    0.000    0.000    0.000    0.000    0.000
   3      5    1      -0.4296   0.000    0.000    0.000    0.000    0.000    0.000
   4      4    2      -0.6287   0.000    0.000    0.000    0.000    0.000    0.000
   5      6    1       0.0295   0.000    0.000    0.000    0.000    0.000    0.000
   6      7    1       0.0487   0.000    0.000    0.000    0.000    0.000    0.000
   7      9    1       0.1179   0.000    0.000    0.000    0.000    0.000    0.000
   8     10    1       0.1524   0.000    0.000    0.000    0.000    0.000    0.000
   9     12    1       0.1623   0.000    0.000    0.000    0.000    0.000    0.000
  10     14    1       0.2215   0.000    0.000    0.000    0.000    0.000    0.000
  11     15    1       0.2353   0.000    0.000    0.000    0.000    0.000    0.000
  12     17    1       0.2546   0.000    0.000    0.000    0.000    0.000    0.000
  13     19    1       0.3580   0.000    0.000    0.000    0.000    0.000    0.000
  14     21    1       0.3707   0.000    0.000    0.000    0.000    0.000    0.000
  15     22    1       0.4282   0.000    0.000    0.000    0.000    0.000    0.000
  16     24    1       0.4609   0.000    0.000    0.000    0.000    0.000    0.000
  17     26    1       0.4869   0.000    0.000    0.000    0.000    0.000    0.000
  18     27    1       0.5638   0.000    0.000    0.000    0.000    0.000    0.000
  19     28    1       0.6021   0.000    0.000    0.000    0.000    0.000    0.000
  20     30    1       0.7493   0.000    0.000    0.000    0.000    0.000    0.000
  21     32    1       0.7861   0.000    0.000    0.000    0.000    0.000    0.000
  22     33    1       0.8111   0.000    0.000    0.000    0.000    0.000    0.000
  23     34    1       0.8830   0.000    0.000    0.000    0.000    0.000    0.000
  24     36    1       0.9146   0.000    0.000    0.000    0.000    0.000    0.000
  25     39    1       0.9804   0.000    0.000    0.000    0.000    0.000    0.000
  26     40    1       1.0350   0.000    0.000    0.000    0.000    0.000    0.000
  27     42    1       1.0357   0.000    0.000    0.000    0.000    0.000    0.000
  28     44    1       1.1038   0.000    0.000    0.000    0.000    0.000    0.000
  29     47    1       1.1422   0.000    0.000    0.000    0.000    0.000    0.000
  30     48    1       1.1856   0.000    0.000    0.000    0.000    0.000    0.000
  31     49    1       1.2194   0.000    0.000    0.000    0.000    0.000    0.000
  32     51    1       1.3222   0.000    0.000    0.000    0.000    0.000    0.000
  33     52    1       1.3625   0.000    0.000    0.000    0.000    0.000    0.000
  34     54    1       1.6165   0.000    0.000    0.000    0.000    0.000    0.000
  35     56    1       1.7594   0.000    0.000    0.000    0.000    0.000    0.000
  36     59    1       1.8644   0.000    0.000    0.000    0.000    0.000    0.000
  37     60    1       1.8644   0.000    0.000    0.000    0.000    0.000    0.000
  38     61    1       2.0031   0.000    0.000    0.000    0.000    0.000    0.000
  39     63    1       2.0410   0.000    0.000    0.000    0.000    0.000    0.000
  40     65    1       2.0490   0.000    0.000    0.000    0.000    0.000    0.000
  41     66    1       2.2726   0.000    0.000    0.000    0.000    0.000    0.000
  42     68    1       2.3734   0.000    0.000    0.000    0.000    0.000    0.000
  43     71    1       2.4369   0.000    0.000    0.000    0.000    0.000    0.000
  44     72    1       2.4735   0.000    0.000    0.000    0.000    0.000    0.000
  45     73    1       3.3870   0.000    0.000    0.000    0.000    0.000    0.000
  46     75    1       3.5605   0.000    0.000    0.000    0.000    0.000    0.000
  47     77    1       3.9700   0.000    0.000    0.000    0.000    0.000    0.000
  48     78    1       4.0437   0.000    0.000    0.000    0.000    0.000    0.000
  49     79    1       4.1400   0.000    0.000    0.000    0.000    0.000    0.000
  50     84    1       4.2604   0.000    0.000    0.000    0.000    0.000    0.000
  51     85    1       4.3219   0.000    0.000    0.000    0.000    0.000    0.000
  52     87    1       4.3592   0.000    0.000    0.000    0.000    0.000    0.000
  53     88    1       4.4723   0.000    0.000    0.000    0.000    0.000    0.000
  54     90    1       4.5493   0.000    0.000    0.000    0.000    0.000    0.000
  55     91    1       4.6911   0.000    0.000    0.000    0.000    0.000    0.000
  56     93    1       4.7449   0.000    0.000    0.000    0.000    0.000    0.000
  57     95    1       4.9405   0.000    0.000    0.000    0.000    0.000    0.000
  58     98    1       5.0623   0.000    0.000    0.000    0.000    0.000    0.000
  59     99    1       5.0664   0.000    0.000    0.000    0.000    0.000    0.000
  60    100    1       5.2537   0.000    0.000    0.000    0.000    0.000    0.000
  61    102    1       5.6732   0.000    0.000    0.000    0.000    0.000    0.000
  62    103    1       5.7296   0.000    0.000    0.000    0.000    0.000    0.000
  63    104    1       5.8987   0.000    0.000    0.000    0.000    0.000    0.000
  64    106    1       6.0582   0.000    0.000    0.000    0.000    0.000    0.000
  65    108    1       6.3272   0.000    0.000    0.000    0.000    0.000    0.000
  66    110    1       6.6288   0.000    0.000    0.000    0.000    0.000    0.000
  67    112    1       6.9388   0.000    0.000    0.000    0.000    0.000    0.000
  68    114    1       7.6873   0.000    0.000    0.000    0.000    0.000    0.000
  69    115    1      17.2426   0.000    0.000    0.000    0.000    0.000    0.000
  70      8    2       0.0487   0.000    0.000    0.000    0.000    0.000    0.000
  71     11    2       0.1623   0.000    0.000    0.000    0.000    0.000    0.000
  72     13    2       0.2215   0.000    0.000    0.000    0.000    0.000    0.000
  73     16    2       0.2353   0.000    0.000    0.000    0.000    0.000    0.000
  74     18    2       0.3560   0.000    0.000    0.000    0.000    0.000    0.000
  75     20    2       0.3707   0.000    0.000    0.000    0.000    0.000    0.000
  76     23    2       0.4609   0.000    0.000    0.000    0.000    0.000    0.000
  77     25    2       0.4869   0.000    0.000    0.000    0.000    0.000    0.000
  78     29    2       0.6021   0.000    0.000    0.000    0.000    0.000    0.000
  79     31    2       0.7861   0.000    0.000    0.000    0.000    0.000    0.000
  80     35    2       0.9025   0.000    0.000    0.000    0.000    0.000    0.000
  81     37    2       0.9146   0.000    0.000    0.000    0.000    0.000    0.000
  82     38    2       0.9804   0.000    0.000    0.000    0.000    0.000    0.000
  83     41    2       1.0357   0.000    0.000    0.000    0.000    0.000    0.000
  84     43    2       1.0814   0.000    0.000    0.000    0.000    0.000    0.000
  85     45    2       1.1038   0.000    0.000    0.000    0.000    0.000    0.000
  86     46    2       1.1422   0.000    0.000    0.000    0.000    0.000    0.000
  87     50    2       1.2194   0.000    0.000    0.000    0.000    0.000    0.000
  88     53    2       1.3625   0.000    0.000    0.000    0.000    0.000    0.000
  89     55    2       1.7594   0.000    0.000    0.000    0.000    0.000    0.000
  90     57    2       1.7631   0.000    0.000    0.000    0.000    0.000    0.000
  91     58    2       1.8644   0.000    0.000    0.000    0.000    0.000    0.000
  92     62    2       2.0410   0.000    0.000    0.000    0.000    0.000    0.000
  93     64    2       2.0490   0.000    0.000    0.000    0.000    0.000    0.000
  94     67    2       2.3431   0.000    0.000    0.000    0.000    0.000    0.000
  95     69    2       2.3734   0.000    0.000    0.000    0.000    0.000    0.000
  96     70    2       2.4369   0.000    0.000    0.000    0.000    0.000    0.000
  97     74    2       3.5605   0.000    0.000    0.000    0.000    0.000    0.000
  98     76    2       3.9700   0.000    0.000    0.000    0.000    0.000    0.000
  99     80    2       4.1400   0.000    0.000    0.000    0.000    0.000    0.000
 100     81    2       4.2137   0.000    0.000    0.000    0.000    0.000    0.000
 101     82    2       4.2213   0.000    0.000    0.000    0.000    0.000    0.000
 102     83    2       4.2604   0.000    0.000    0.000    0.000    0.000    0.000
 103     86    2       4.3592   0.000    0.000    0.000    0.000    0.000    0.000
 104     89    2       4.5493   0.000    0.000    0.000    0.000    0.000    0.000
 105     92    2       4.7449   0.000    0.000    0.000    0.000    0.000    0.000
 106     94    2       4.9405   0.000    0.000    0.000    0.000    0.000    0.000
 107     96    2       4.9838   0.000    0.000    0.000    0.000    0.000    0.000
 108     97    2       5.0623   0.000    0.000    0.000    0.000    0.000    0.000
 109    101    2       5.6732   0.000    0.000    0.000    0.000    0.000    0.000
 110    105    2       5.8987   0.000    0.000    0.000    0.000    0.000    0.000
 111    107    2       6.3272   0.000    0.000    0.000    0.000    0.000    0.000
 112    109    2       6.4232   0.000    0.000    0.000    0.000    0.000    0.000
 113    111    2       6.9388   0.000    0.000    0.000    0.000    0.000    0.000
 114    113    2       7.6873   0.000    0.000    0.000    0.000    0.000    0.000
------------------------------------------------------------------------------
  @DRVTDA-I, Roots obtained by Davidson method.
  calling tda davidson                       8                     1
  after tda davidson                      8                     8
                     5                     5
  kroot is                      5
  calling tda davidson                       8                     2
  after tda davidson                      8                     8
                     5                     5
  kroot is                      5
__________________________________________________________________________
    Tamm-Dancoff (CIS) Excitation Energies and Transition Moments

                Excitation         Transition Dipole         Oscillator
 Root  Symmetry  Energy         x           y           z     Strength
__________________________________________________________________________
   1       1    0.27360      0.0000      0.0000      0.0000  .00000000D+00
__________________________________________________________________________
 
__________________________________________________________________________
  TDA excitation ergy:             0.273602695513 a.u.    7.4451 eV
  Total TDA electronic energy:   -55.946709126690 a.u.
 
  Dominant contributions: 
  SCF eigenvalue ordering used in list below. 
--------------------------------------------------------------------------------
    I    j    A    b
--------------------------------------------------------------------------------
    5    0    6    0  -0.8439204833 AA  
    5    0   10    0  -0.4869538304 AA  
    5    0   22    0  -0.1554065521 AA  
    5    0    9    0   0.1244360199 AA  
    5    0   17    0   0.0634919183 AA  
    5    0   19    0   0.0541675454 AA  
    5    0   40    0   0.0350863254 AA  
    5    0   34    0  -0.0285340534 AA  
    5    0   30    0   0.0189259432 AA  
    4    0   23    0  -0.0122558653 AA  
    3    0   24    0  -0.0122558651 AA  
    5    0   33    0  -0.0119318883 AA  
    2    0    9    0   0.0110034599 AA  
    5    0   72    0  -0.0109217334 AA  
    4    0   13    0  -0.0097825073 AA  
--------------------------------------------------------------------------------
   2       1    0.32712      0.0000      0.0000      0.0000  .00000000D+00
__________________________________________________________________________
 
__________________________________________________________________________
  TDA excitation ergy:             0.327118444682 a.u.    8.9013 eV
  Total TDA electronic energy:   -55.893193377521 a.u.
 
  Dominant contributions: 
  SCF eigenvalue ordering used in list below. 
--------------------------------------------------------------------------------
    I    j    A    b
--------------------------------------------------------------------------------
    5    0    7    0  -0.8599056038 AA  
    5    0   12    0  -0.3797760487 AA  
    5    0   14    0  -0.2837309992 AA  
    5    0   24    0  -0.1627797555 AA  
    5    0   21    0  -0.0522851305 AA  
    5    0   32    0  -0.0367437154 AA  
    5    0   15    0  -0.0355439065 AA  
    5    0   36    0  -0.0350030501 AA  
    5    0   39    0  -0.0263562661 AA  
    5    0   44    0  -0.0228771586 AA  
    5    0   42    0  -0.0181815080 AA  
    5    0   26    0  -0.0142439055 AA  
    5    0   63    0  -0.0118964452 AA  
    2    0   15    0  -0.0105443266 AA  
    5    0   47    0  -0.0096761678 AA  
--------------------------------------------------------------------------------
   3       1    0.36937      0.0000      0.0000      0.0000  .00000000D+00
__________________________________________________________________________
 
__________________________________________________________________________
  TDA excitation ergy:             0.369365187805 a.u.   10.0509 eV
  Total TDA electronic energy:   -55.850946634398 a.u.
 
  Dominant contributions: 
  SCF eigenvalue ordering used in list below. 
--------------------------------------------------------------------------------
    I    j    A    b
--------------------------------------------------------------------------------
    5    0    9    0  -0.9533720065 AA  
    5    0   10    0  -0.1656343942 AA  
    5    0   19    0  -0.1594218414 AA  
    4    0   13    0   0.0702969185 AA  
    3    0   14    0   0.0702969129 AA  
    5    0    6    0  -0.0626720123 AA  
    4    0   23    0   0.0574916559 AA  
    3    0   24    0   0.0574916514 AA  
    3    0    7    0   0.0461675099 AA  
    4    0    8    0   0.0461675094 AA  
    3    0   12    0   0.0412931818 AA  
    4    0   11    0   0.0412931787 AA  
    5    0   27    0   0.0371742995 AA  
    5    0   30    0   0.0356555930 AA  
    5    0   17    0   0.0325053953 AA  
--------------------------------------------------------------------------------
   4       1    0.39575      0.0000      0.0000      0.0000  .00000000D+00
__________________________________________________________________________
 
__________________________________________________________________________
  TDA excitation ergy:             0.395751162264 a.u.   10.7689 eV
  Total TDA electronic energy:   -55.824560659939 a.u.
 
  Dominant contributions: 
  SCF eigenvalue ordering used in list below. 
--------------------------------------------------------------------------------
    I    j    A    b
--------------------------------------------------------------------------------
    5    0   10    0   0.7905495085 AA  
    5    0    6    0  -0.5313163611 AA  
    5    0   22    0   0.2223089878 AA  
    5    0   17    0  -0.1573067411 AA  
    5    0    9    0  -0.0916404606 AA  
    5    0   19    0  -0.0738835700 AA  
    5    0   40    0  -0.0373458188 AA  
    5    0   30    0  -0.0359081315 AA  
    5    0   34    0   0.0328412933 AA  
    5    0   27    0  -0.0157278112 AA  
    5    0   33    0   0.0125776357 AA  
    5    0   72    0   0.0109407368 AA  
    5    0   51    0   0.0075665808 AA  
    5    0   48    0  -0.0073996304 AA  
    2    0   19    0  -0.0066651331 AA  
--------------------------------------------------------------------------------
   5       1    0.40500      0.0000      0.0000      0.0000  .00000000D+00
__________________________________________________________________________
 
__________________________________________________________________________
  TDA excitation ergy:             0.405003769031 a.u.   11.0207 eV
  Total TDA electronic energy:   -55.815308053172 a.u.
 
  Dominant contributions: 
  SCF eigenvalue ordering used in list below. 
--------------------------------------------------------------------------------
    I    j    A    b
--------------------------------------------------------------------------------
    5    0   14    0   0.7731900662 AA  
    5    0   12    0  -0.5381408836 AA  
    5    0   26    0   0.2351897028 AA  
    5    0   24    0   0.1415448584 AA  
    5    0   21    0  -0.1115770865 AA  
    5    0   15    0  -0.1033275052 AA  
    5    0   32    0   0.0518661833 AA  
    5    0   28    0  -0.0492892225 AA  
    5    0    7    0  -0.0426186329 AA  
    5    0   39    0   0.0353642919 AA  
    5    0   42    0   0.0270838822 AA  
    4    0   13    0  -0.0195261422 AA  
    3    0   14    0   0.0195236985 AA  
    4    0   25    0  -0.0181361171 AA  
    3    0   26    0   0.0181359345 AA  
--------------------------------------------------------------------------------
   1       2    0.32712      0.0000      0.0000      0.0000  .00000000D+00
__________________________________________________________________________
 
__________________________________________________________________________
  TDA excitation ergy:             0.327118444584 a.u.    8.9013 eV
  Total TDA electronic energy:   -55.893193377619 a.u.
 
  Dominant contributions: 
  SCF eigenvalue ordering used in list below. 
--------------------------------------------------------------------------------
    I    j    A    b
--------------------------------------------------------------------------------
    5    0    8    0  -0.8599055994 AA  
    5    0   11    0  -0.3797761056 AA  
    5    0   13    0  -0.2837309448 AA  
    5    0   23    0  -0.1627797588 AA  
    5    0   20    0  -0.0522851586 AA  
    5    0   31    0  -0.0367437353 AA  
    5    0   16    0  -0.0355438024 AA  
    5    0   37    0  -0.0350030455 AA  
    5    0   38    0  -0.0263562637 AA  
    5    0   45    0  -0.0228771573 AA  
    5    0   41    0  -0.0181814992 AA  
    5    0   25    0  -0.0142438911 AA  
    5    0   62    0  -0.0118964226 AA  
    2    0   16    0  -0.0105443258 AA  
[...]
    5    0    7    0   0.6179535989 AA  
    5    0   12    0   0.2281764336 AA  
    5    0   14    0   0.1483973707 AA  
    5    0   24    0   0.0710075878 AA  
    5    5    9    7   0.0587401095 ABAB
    5    5    7    9   0.0587401095 ABAB
    5    5   19    7   0.0558299380 ABAB
    5    5    7   19   0.0558299380 ABAB
    5    3    7   24   0.0381495625 ABAB
    3    5   24    7   0.0381495625 ABAB
    4    5   23    7   0.0368403460 ABAB
    5    4    7   23   0.0368403460 ABAB
    5    0   15    0   0.0340932056 AA  
    5    3    7   14   0.0330260813 ABAB
    3    5   14    7   0.0330260813 ABAB
--------------------------------------------------------------------------------

  Eigenvector is saved on CCRE_1_4  

  Adding new vector to expansion space.
  Guess for next eigenvalue   0.405003769031217     
 45  45  0.3670950875D+00  0.9989165170D+01  0.6856451198D+00  0.2544273162D-01
 46  46  0.3665095922D+00  0.9973233034D+01  0.9992299007D+00  0.1958248967D-01
 47  47  0.3663341725D+00  0.9968459622D+01  0.9995943806D+00  0.6216555024D-02
  L-O-C-K-I-N-G O-N R-O-O-T 
 48  48  0.3663004923D+00  0.9967543136D+01  0.9999430058D+00  0.3704649005D-02
 49  49  0.3662864674D+00  0.9967161498D+01  0.9999673908D+00  0.2039778108D-02
 50  50  0.3662838920D+00  0.9967091418D+01  0.9999895550D+00  0.1079812259D-02
 51  51  0.3662832650D+00  0.9967074358D+01  0.9999984182D+00  0.6561303884D-03
 52  52  0.3662828658D+00  0.9967063493D+01  0.9999995729D+00  0.3168318013D-03
 53  53  0.3662826405D+00  0.9967057365D+01  0.9999996506D+00  0.2261399662D-03
 54  54  0.3662827268D+00  0.9967059711D+01  0.9999998377D+00  0.9331449786D-04
 55  55  0.3662826980D+00  0.9967058929D+01  0.9999999839D+00  0.4749349274D-04
 56  56  0.3662826757D+00  0.9967058322D+01  0.9999999973D+00  0.1742987555D-04
 57  57  0.3662826768D+00  0.9967058351D+01  0.9999999996D+00  0.9139427589D-05
  Converged eigenvalue:   0.366282676805770       a.u.
   Total EOMEE-CC2 electronic energy      -56.095887793665291 a.u.
  Converged eigenvector 
  SCF eigenvalue ordering used in list below. 
--------------------------------------------------------------------------------
    I    j    A    b
--------------------------------------------------------------------------------
    5    0   12    0  -0.4721418229 AA  
    5    0   14    0   0.4456816496 AA  
    5    0   26    0   0.1307737347 AA  
    5    0   15    0  -0.1002368268 AA  
    5    0   21    0  -0.0903404384 AA  
    5    0    7    0   0.0735524894 AA  
    5    5   12    9  -0.0425606215 ABAB
    5    5    9   12  -0.0425606215 ABAB
    5    5   19   12  -0.0425300420 ABAB
    5    5   12   19  -0.0425300420 ABAB
    5    5   19   14   0.0367946759 ABAB
    5    5   14   19   0.0367946759 ABAB
    5    0   24    0   0.0355236943 AA  
    5    0   28    0  -0.0339392265 AA  
    5    5   14    9   0.0337604331 ABAB
--------------------------------------------------------------------------------
  Converged eigenvector, normalized to one 
  SCF eigenvalue ordering used in list below. 
--------------------------------------------------------------------------------
    I    j    A    b
--------------------------------------------------------------------------------
    5    0   12    0  -0.4721418229 AA  
    5    0   14    0   0.4456816496 AA  
    5    0   26    0   0.1307737347 AA  
    5    0   15    0  -0.1002368268 AA  
    5    0   21    0  -0.0903404384 AA  
    5    0    7    0   0.0735524894 AA  
    5    5   12    9  -0.0425606215 ABAB
    5    5    9   12  -0.0425606215 ABAB
    5    5   19   12  -0.0425300420 ABAB
    5    5   12   19  -0.0425300420 ABAB
    5    5   19   14   0.0367946759 ABAB
    5    5   14   19   0.0367946759 ABAB
    5    0   24    0   0.0355236943 AA  
    5    0   28    0  -0.0339392265 AA  
    5    5   14    9   0.0337604331 ABAB
--------------------------------------------------------------------------------

  Eigenvector is saved on CCRE_1_5  

  Solution of   5 roots required   57 iterations.
  @DOEOMEE-I, right-hand eigenvectors will be computed.
  Beginning symmetry block   2.   5 roots requested.
  @DOEOMEE-I, Matrix dimension for diagonalization:    96200
  Creating initial guess for root
________________________________________________________________________
            Subspace          Eigenvalue           
 Iteration  Dimension   (a.u.)         (eV)       Overlap      Residual
________________________________________________________________________
  @NEWGES-I, Using TDA initial guess.
  1   1  0.3965904105D+00  0.1079177371D+02  0.0000000000D+00  0.2960255012D+00
  2   2  0.2898050671D+00  0.7885996792D+01  0.9615271958D+00  0.5509841277D-01
  3   3  0.2888097567D+00  0.7858913018D+01  0.9992768224D+00  0.2708840622D-01
  4   4  0.2884496126D+00  0.7849113001D+01  0.9993790327D+00  0.9032270056D-02
  5   5  0.2883836735D+00  0.7847318706D+01  0.9999224964D+00  0.4715013833D-02
  L-O-C-K-I-N-G O-N R-O-O-T 
  6   6  0.2883631153D+00  0.7846759288D+01  0.9999560279D+00  0.2434027669D-02
  7   7  0.2883619861D+00  0.7846728561D+01  0.9999969050D+00  0.5116537129D-03
  8   8  0.2883623429D+00  0.7846738272D+01  0.9999996379D+00  0.5041247564D-03
  9   9  0.2883623115D+00  0.7846737415D+01  0.9999996284D+00  0.2058025460D-03
 10  10  0.2883618487D+00  0.7846724822D+01  0.9999999159D+00  0.1021412158D-03
 11  11  0.2883618702D+00  0.7846725407D+01  0.9999999807D+00  0.4277276491D-04
 12  12  0.2883619071D+00  0.7846726411D+01  0.9999999992D+00  0.1181162351D-04
 13  13  0.2883619078D+00  0.7846726430D+01  0.9999999999D+00  0.3918911330D-05
  Converged eigenvalue:   0.288361907775228       a.u.
   Total EOMEE-CC2 electronic energy      -56.173808562695832 a.u.
  Converged eigenvector 
  SCF eigenvalue ordering used in list below. 
--------------------------------------------------------------------------------
    I    j    A    b
--------------------------------------------------------------------------------
    5    0    8    0   0.6179536639 AA  
    5    0   11    0   0.2281766083 AA  
    5    0   13    0   0.1483972263 AA  
    5    0   23    0   0.0710076200 AA  
    5    5    8    9   0.0587403226 ABAB
    5    5    9    8   0.0587403226 ABAB
    5    5    8   19   0.0558300309 ABAB
    5    5   19    8   0.0558300309 ABAB
    4    5   23    8   0.0381495483 ABAB
    5    4    8   23   0.0381495483 ABAB
    5    3    8   24   0.0368403341 ABAB
    3    5   24    8   0.0368403341 ABAB
    5    0   16    0   0.0340923526 AA  
    4    5   13    8   0.0330260930 ABAB
    5    4    8   13   0.0330260930 ABAB
--------------------------------------------------------------------------------
  Converged eigenvector, normalized to one 
  SCF eigenvalue ordering used in list below. 
--------------------------------------------------------------------------------
    I    j    A    b
--------------------------------------------------------------------------------
    5    0    8    0   0.6179536639 AA  
    5    0   11    0   0.2281766083 AA  
    5    0   13    0   0.1483972263 AA  
    5    0   23    0   0.0710076200 AA  
    5    5    8    9   0.0587403226 ABAB
    5    5    9    8   0.0587403226 ABAB
    5    5    8   19   0.0558300309 ABAB
    5    5   19    8   0.0558300309 ABAB
    4    5   23    8   0.0381495483 ABAB
    5    4    8   23   0.0381495483 ABAB
    5    3    8   24   0.0368403341 ABAB
    3    5   24    8   0.0368403341 ABAB
    5    0   16    0   0.0340923526 AA  
    4    5   13    8   0.0330260930 ABAB
    5    4    8   13   0.0330260930 ABAB
--------------------------------------------------------------------------------

  Eigenvector is saved on CCRE_2_1  

  Adding new vector to expansion space.
  Guess for next eigenvalue   0.405003768524803     
 14  14  0.3670937775D+00  0.9989129522D+01  0.6869114468D+00  0.2398180974D-01
 15  15  0.3665201323D+00  0.9973519844D+01  0.9992250005D+00  0.1753250363D-01
 16  16  0.3663447054D+00  0.9968746236D+01  0.9995712631D+00  0.6473406483D-02
 17  17  0.3663045816D+00  0.9967654411D+01  0.9999083958D+00  0.4840287161D-02
  L-O-C-K-I-N-G O-N R-O-O-T 
 18  18  0.3662873887D+00  0.9967186569D+01  0.9999476368D+00  0.2337716264D-02
 19  19  0.3662845620D+00  0.9967109651D+01  0.9999877691D+00  0.1351498926D-02
 20  20  0.3662837053D+00  0.9967086337D+01  0.9999975932D+00  0.8111874886D-03
 21  21  0.3662828883D+00  0.9967064106D+01  0.9999989100D+00  0.3531203859D-03
 22  22  0.3662825636D+00  0.9967055270D+01  0.9999994519D+00  0.2416140970D-03
 23  23  0.3662827213D+00  0.9967059563D+01  0.9999998920D+00  0.8553276577D-04
 24  24  0.3662827086D+00  0.9967059216D+01  0.9999999914D+00  0.4279935400D-04
 25  25  0.3662826768D+00  0.9967058351D+01  0.9999999980D+00  0.1477040615D-04
 26  26  0.3662826752D+00  0.9967058308D+01  0.9999999997D+00  0.7819974749D-05
  Converged eigenvalue:   0.366282675226906       a.u.
   Total EOMEE-CC2 electronic energy      -56.095887795244153 a.u.
  Converged eigenvector 
  SCF eigenvalue ordering used in list below. 
--------------------------------------------------------------------------------
    I    j    A    b
--------------------------------------------------------------------------------
    5    0   11    0  -0.4721413707 AA  
    5    0   13    0   0.4456819483 AA  
    5    0   25    0   0.1307736710 AA  
    5    0   16    0  -0.1002381619 AA  
    5    0   20    0  -0.0903403584 AA  
    5    0    8    0   0.0735523183 AA  
    5    5   11    9  -0.0425605772 ABAB
    5    5    9   11  -0.0425605772 ABAB
    5    5   11   19  -0.0425300154 ABAB
    5    5   19   11  -0.0425300154 ABAB
    5    5   13   19   0.0367946754 ABAB
    5    5   19   13   0.0367946754 ABAB
    5    0   23    0   0.0355236635 AA  
    5    0   29    0  -0.0339390746 AA  
    5    5   13    9   0.0337603297 ABAB
--------------------------------------------------------------------------------
  Converged eigenvector, normalized to one 
  SCF eigenvalue ordering used in list below. 
--------------------------------------------------------------------------------
    I    j    A    b
--------------------------------------------------------------------------------
    5    0   11    0  -0.4721413707 AA  
    5    0   13    0   0.4456819483 AA  
    5    0   25    0   0.1307736710 AA  
    5    0   16    0  -0.1002381619 AA  
    5    0   20    0  -0.0903403584 AA  
    5    0    8    0   0.0735523183 AA  
    5    5   11    9  -0.0425605772 ABAB
    5    5    9   11  -0.0425605772 ABAB
    5    5   11   19  -0.0425300154 ABAB
    5    5   19   11  -0.0425300154 ABAB
    5    5   13   19   0.0367946754 ABAB
    5    5   19   13   0.0367946754 ABAB
    5    0   23    0   0.0355236635 AA  
    5    0   29    0  -0.0339390746 AA  
    5    5   13    9   0.0337603297 ABAB
--------------------------------------------------------------------------------

  Eigenvector is saved on CCRE_2_2  

  Adding new vector to expansion space.
  Guess for next eigenvalue   0.421916542628366     
 27  27  0.3872024015D+00  0.1053631300D+02  0.6607251865D+00  0.1962055755D-01
 28  28  0.3868492232D+00  0.1052670253D+02  0.9996987661D+00  0.7431685888D-02
  L-O-C-K-I-N-G O-N R-O-O-T 
 29  29  0.3868180706D+00  0.1052585482D+02  0.9999698488D+00  0.1670367765D-02
 30  30  0.3868160967D+00  0.1052580111D+02  0.9999984560D+00  0.8166170073D-03
 31  31  0.3868152154D+00  0.1052577713D+02  0.9999994815D+00  0.2035306440D-03
 32  32  0.3868150736D+00  0.1052577327D+02  0.9999999551D+00  0.7884370320D-04
 33  33  0.3868151144D+00  0.1052577438D+02  0.9999999951D+00  0.2070621747D-04
 34  34  0.3868151154D+00  0.1052577441D+02  0.9999999996D+00  0.8382708747D-05
  Converged eigenvalue:   0.386815115443597       a.u.
   Total EOMEE-CC2 electronic energy      -56.075355355027462 a.u.
  Converged eigenvector 
  SCF eigenvalue ordering used in list below. 
--------------------------------------------------------------------------------
    I    j    A    b
--------------------------------------------------------------------------------
    5    0   13    0  -0.4458456264 AA  
    5    0   11    0  -0.3998199129 AA  
    5    0    8    0   0.2674988272 AA  
    5    0   23    0  -0.1716546704 AA  
    5    0   25    0  -0.0440336685 AA  
    5    0   31    0  -0.0408962462 AA  
    5    5   11    9  -0.0349397755 ABAB
    5    5    9   11  -0.0349397755 ABAB
    5    5   13   19  -0.0341208316 ABAB
    5    5   19   13  -0.0341208316 ABAB
    5    5   11   19  -0.0339605774 ABAB
    5    5   19   11  -0.0339605774 ABAB
    5    5   13    9  -0.0330088380 ABAB
    5    5    9   13  -0.0330088380 ABAB
    5    5    8    9   0.0324264301 ABAB
--------------------------------------------------------------------------------
  Converged eigenvector, normalized to one 
  SCF eigenvalue ordering used in list below. 
--------------------------------------------------------------------------------
    I    j    A    b
--------------------------------------------------------------------------------
    5    0   13    0  -0.4458456264 AA  
    5    0   11    0  -0.3998199129 AA  
    5    0    8    0   0.2674988272 AA  
    5    0   23    0  -0.1716546704 AA  
    5    0   25    0  -0.0440336685 AA  
    5    0   31    0  -0.0408962462 AA  
    5    5   11    9  -0.0349397755 ABAB
    5    5    9   11  -0.0349397755 ABAB
    5    5   13   19  -0.0341208316 ABAB
    5    5   19   13  -0.0341208316 ABAB
    5    5   11   19  -0.0339605774 ABAB
    5    5   19   11  -0.0339605774 ABAB
    5    5   13    9  -0.0330088380 ABAB
    5    5    9   13  -0.0330088380 ABAB
    5    5    8    9   0.0324264301 ABAB
--------------------------------------------------------------------------------

  Eigenvector is saved on CCRE_2_3  

  Adding new vector to expansion space.
  Guess for next eigenvalue   0.454401908595161     
 35  35  0.4104080618D+00  0.1116777112D+02  0.6778321346D+00  0.1498893518D-01
 36  36  0.4102546937D+00  0.1116359776D+02  0.9997593051D+00  0.7038512719D-02
  L-O-C-K-I-N-G O-N R-O-O-T 
 37  37  0.4102292189D+00  0.1116290456D+02  0.9999563582D+00  0.1578731575D-02
 38  38  0.4102266666D+00  0.1116283511D+02  0.9999976630D+00  0.6729526788D-03
 39  39  0.4102261480D+00  0.1116282099D+02  0.9999995345D+00  0.2252000942D-03
 40  40  0.4102260935D+00  0.1116281951D+02  0.9999999442D+00  0.1019519112D-03
 41  41  0.4102260982D+00  0.1116281964D+02  0.9999999905D+00  0.3002506365D-04
 42  42  0.4102260889D+00  0.1116281938D+02  0.9999999992D+00  0.1329084216D-04
 43  43  0.4102260857D+00  0.1116281930D+02  0.9999999998D+00  0.3593331542D-05
  Converged eigenvalue:   0.410226085678503       a.u.
   Total EOMEE-CC2 electronic energy      -56.051944384792556 a.u.
  Converged eigenvector 
  SCF eigenvalue ordering used in list below. 
--------------------------------------------------------------------------------
    I    j    A    b
--------------------------------------------------------------------------------
    5    0   16    0   0.6638232156 AA  
    5    0   29    0   0.0978437051 AA  
    5    0   11    0  -0.0760288700 AA  
    5    0   13    0   0.0666150421 AA  
    5    5   16    9   0.0603217161 ABAB
    5    5    9   16   0.0603217161 ABAB
    5    5   16   19   0.0596274752 ABAB
    5    5   19   16   0.0596274752 ABAB
    4    5   23   16   0.0389424100 ABAB
    5    4   16   23   0.0389424100 ABAB
    5    3   16   24   0.0379110442 ABAB
    3    5   24   16   0.0379110442 ABAB
    5    5   16   30  -0.0348278300 ABAB
    5    5   30   16  -0.0348278300 ABAB
    4    5   13   16   0.0313420606 ABAB
--------------------------------------------------------------------------------
  Converged eigenvector, normalized to one 
  SCF eigenvalue ordering used in list below. 
--------------------------------------------------------------------------------
    I    j    A    b
--------------------------------------------------------------------------------
    5    0   16    0   0.6638232156 AA  
    5    0   29    0   0.0978437051 AA  
    5    0   11    0  -0.0760288700 AA  
    5    0   13    0   0.0666150421 AA  
    5    5   16    9   0.0603217161 ABAB
    5    5    9   16   0.0603217161 ABAB
    5    5   16   19   0.0596274752 ABAB
    5    5   19   16   0.0596274752 ABAB
    4    5   23   16   0.0389424100 ABAB
    5    4   16   23   0.0389424100 ABAB
    5    3   16   24   0.0379110442 ABAB
    3    5   24   16   0.0379110442 ABAB
    5    5   16   30  -0.0348278300 ABAB
    5    5   30   16  -0.0348278300 ABAB
    4    5   13   16   0.0313420606 ABAB
--------------------------------------------------------------------------------

  Eigenvector is saved on CCRE_2_4  

  Adding new vector to expansion space.
  Guess for next eigenvalue   0.463906489520384     
 44  44  0.4410538096D+00  0.1200168431D+02  0.6927385151D+00  0.1767594330D-01
 45  45  0.4407720675D+00  0.1199401772D+02  0.9996898134D+00  0.7014899074D-02
  L-O-C-K-I-N-G O-N R-O-O-T 
 46  46  0.4407351430D+00  0.1199301295D+02  0.9999530261D+00  0.1987678533D-02
 47  47  0.4407303638D+00  0.1199288291D+02  0.9999959343D+00  0.1022970195D-02
 48  48  0.4407294777D+00  0.1199285879D+02  0.9999993114D+00  0.2531977665D-03
 49  49  0.4407295876D+00  0.1199286178D+02  0.9999999507D+00  0.1064515558D-03
 50  50  0.4407296476D+00  0.1199286342D+02  0.9999999925D+00  0.3317729643D-04
 51  51  0.4407296443D+00  0.1199286333D+02  0.9999999991D+00  0.1471165997D-04
 52  52  0.4407296351D+00  0.1199286308D+02  0.9999999999D+00  0.4103067729D-05
  Converged eigenvalue:   0.440729635119222       a.u.
   Total EOMEE-CC2 electronic energy      -56.021440835351839 a.u.
  Converged eigenvector 
  SCF eigenvalue ordering used in list below. 
--------------------------------------------------------------------------------
    I    j    A    b
--------------------------------------------------------------------------------
    4    0    6    0   0.5868575317 AA  
    4    0   10    0   0.2968233952 AA  
    4    0    9    0  -0.1520905984 AA  
    4    0   22    0   0.0829922418 AA  
    4    0   19    0  -0.0608114045 AA  
    4    5    6    9   0.0386903517 ABAB
    5    4    9    6   0.0386903517 ABAB
    4    5    6   19   0.0354479661 ABAB
    5    4   19    6   0.0354479661 ABAB
    4    0    7    0  -0.0317690014 AA  
    3    0    8    0  -0.0317689977 AA  
    4    4   23    6   0.0305406161 ABAB
    4    4    6   23   0.0305406161 ABAB
    4    3    6   24   0.0294740461 ABAB
    3    4   24    6   0.0294740461 ABAB
--------------------------------------------------------------------------------
  Converged eigenvector, normalized to one 
  SCF eigenvalue ordering used in list below. 
--------------------------------------------------------------------------------
    I    j    A    b
--------------------------------------------------------------------------------
    4    0    6    0   0.5868575317 AA  
    4    0   10    0   0.2968233952 AA  
    4    0    9    0  -0.1520905984 AA  
    4    0   22    0   0.0829922418 AA  
    4    0   19    0  -0.0608114045 AA  
    4    5    6    9   0.0386903517 ABAB
    5    4    9    6   0.0386903517 ABAB
    4    5    6   19   0.0354479661 ABAB
    5    4   19    6   0.0354479661 ABAB
    4    0    7    0  -0.0317690014 AA  
    3    0    8    0  -0.0317689977 AA  
    4    4   23    6   0.0305406161 ABAB
    4    4    6   23   0.0305406161 ABAB
    4    3    6   24   0.0294740461 ABAB
    3    4   24    6   0.0294740461 ABAB
--------------------------------------------------------------------------------

  Eigenvector is saved on CCRE_2_5  

  Solution of   5 roots required   52 iterations.
 @CHECKOUT-I, Total execution time (CPU/WALL):      365.57/      18.55 seconds.
--executable xvee finished with status     0 in       19.10 seconds (walltime).
  The final electronic energy is       -56.021440835351839 a.u. 
  This computation required                           48.49 seconds (walltime).
