 --invoking executable--
/home/CEISAM/blondel-a/soft/cfour2.1/cfour2.1-serial-mkl/bin/xjoda


   *************************************************************************
         <<<     CCCCCC     CCCCCC   |||     CCCCCC     CCCCCC   >>>
       <<<      CCC        CCC       |||    CCC        CCC         >>>
      <<<      CCC        CCC        |||   CCC        CCC            >>>
    <<<        CCC        CCC        |||   CCC        CCC              >>>
      <<<      CCC        CCC        |||   CCC        CCC            >>>
       <<<      CCC        CCC       |||    CCC        CCC         >>>
         <<<     CCCCCC     CCCCCC   |||     CCCCCC     CCCCCC   >>>
   *************************************************************************

     ****************************************************************
     * CFOUR Coupled-Cluster techniques for Computational Chemistry *
     ****************************************************************
 

   Department of Chemistry                Institut fuer Physikalische Chemie
   University of Florida                  Universitaet Mainz
   Gainesville, FL 32611, USA             D-55099 Mainz, Germany

   Department of Chemistry                Fakultaet fuer Chemie und Biowiss.
   Johns Hopkins University               Karlsruher Institut fuer Technologie
   Baltimore, MD 21218, USA               D-76131 Karlsruhe, Germany

   Department of Chemistry                Department of Physical Chemistry
   Southern Methodist University          Eotvos Lorand University
   Dallas, TX 75275, USA                  H-1053 Budapest, Hungary

 
                       Version 2.1
 
                     cribbar041                                        
                     Tue Mar 16 09:59:33 CET 2021                      
                     integer*8 version is running
 
********************************************************************************
*                          Input from ZMAT file                                *
********************************************************************************
Ketene -GS                                                                      
O    0.0000000000            0.0000000000           -0.1320966888               
H    0.0000000000            1.4315287786            0.9797000618               
H    0.0000000000           -1.4315287786            0.9797000618               
                                                                                
*CFOUR(COORD=CARTESIAN,UNITS=BOHR                                               
       MEMORY=250,MEM_UNIT=GB,CC_PROG=NCC                                       
       FROZEN_CORE=1                                                            
       CALC=CCSDT,BASIS=AUG-PVTZ                                                
       SCF_CONV=8,CC_CONV=7,ESTATE_CONV=5,ESTATE_MAXCYC=120                     
       EXCITE=EOMEE,ESTATE_SYM=1/1/1/1)                                         
                                                                                
********************************************************************************
    -------------------------------------------------------------------
                    CFOUR Control Parameters 
    -------------------------------------------------------------------
        External           Internal           Value            Units
          Name               Name
    -------------------------------------------------------------------
       ABCDTYPE             IABCDT         STANDARD    [  0]    ***   
       ANHARMONIC           IANHAR         OFF         [  0]    ***   
       ANH_ALGORIT          IANALG         STANDARD    [  0]    ***   
       ANH_DERIVAT          IANDER         SECOND      [  1]    ***   
       ANH_MODE             ANHMOD         VIBRATION   [  0]    ***   
       ANH_STEPSIZ          ICUBST             50000          x 10-6  
       ANH_SYMMETR          IANHSM         ABELIAN     [  0]    ***   
       AO_LADDERS           IAOLAD         SINGLEPASS  [  1]    ***   
       AV_SCF               IAVSCF         OFF         [  0]    ***   
       BASIS                IBASIS         AUG-PVTZ    [ 34]    ***   
       BOTHVECTORS          BOTHVC         OFF         [  0]    ***   
       BOX_POTENT           IPIAB          OFF         [  0]    ***   
       BREIT                IBREIT         OFF         [  0]    ***   
       BRUCK_CONV           IBRTOL          10D-  4             ***   
       BRUECKNER            IBRKNR         OFF         [  0]    ***   
       BUFFERSIZE           IBUFFS              4096            ***   
       CACHE_RECS           ICHREC             10               ***   
       CALCLEVEL            ICLLVL         CCSDT       [ 18]    ***   
       CCORBOPT             ICCORB         OFF         [  0]  x 0.01  
       CC_CONV              ICCCNV          10D-  7             ***   
       CC_EXPORDER          ICCEOR              5               ***   
       CC_EXTRAPOL          ICCEXT         DIIS        [  1]    ***   
       CC_GUESS             ICCGES         MP2         [  0]    ***   
       CC_MAXCYC            ICCCYC            100              cycles 
       CC_PROGRAM           ICCPRO         NCC         [  5]    ***   
       CHARGE               ICHRGE              0               ***   
       CHOLESKY             ICHOLE         OFF         [  0]    ***   
       CIS_CONV             ICISTL              5               ***   
       COMM_SIZE            IPSIZE            ***               ***   
       CONSTANT             ICONST         OLD         [  1]    ***   
       CONTINUUM            ICONTU         NONE        [  0]    ***   
       CONTRACTION          ICNTYP         GENERAL     [  1]    ***   
       COORDINATES          ICOORD         CARTESIAN   [  1]    ***   
       CPHF_CONVER          ICPHFT          10D- 16             ***   
       CPHF_MAXCYC          ICPHFC             64              cycles 
       CUBIC                ICUBIC         OFF         [  0]    ***   
       CURVILINEAR          ICURVY         OFF         [  0]    ***   
       DBOC                 IDBOC          OFF         [  0]    ***   
       DCT                  IDCT           OFF         [  0]    ***   
       DERIV_LEV            IDRLVL         ZERO        [  0]    ***   
       DEVMEM_SIZE          IDVMEM         *********           MByte  
       DIAG_MRCC            IEOMST          10D-  0             ***   
       DIFF_TYPE            IDIFTY         RELAXED     [  0]    ***   
       DIRECT               IDIRCT         OFF         [  0]    ***   
       DROPMO               IDRPMO      NONE         
       ECP                  IECP           OFF         [  0]    ***   
       EIGENVECTOR          IVEC                1               ***   
       EL_ANHARM            IELANH         OFF         [  0]    ***   
       EOMFOLLOW            IEOMSR         ENERGY      [  0]    ***   
       EOMIP                IEOMIP         OFF         [  0]    ***   
       EOMLEVEL             HBARFM         SAME        [  0]    ***   
       EOM_MRCC             IMRCCE         NEW         [  1]    ***   
       EOM_NONIT            EOMNON         OFF         [  0]    ***   
       EOM_NSING            IEOMSI          10D-  0             ***   
       EOM_NSTATES          IMRCCD         DAVIDSON    [  0]    ***   
       EOM_NTRIP            IEOMTR          10D-  0             ***   
       EOM_ORDER            IEXORD         ENERGY      [  0]    ***   
       EOM_PROPSTA          IEOMST              0               ***   
       ESTATE_CONV          IEXTOL          10D-  5             ***   
       ESTATE_DIAG          IEXDIG         ITERATIVE   [  0]    ***   
       ESTATE_LOCK          IESLOC         ON          [  1]    ***   
       ESTATE_MAXC          IEXMXC            120               ***   
       ESTATE_PROP          IEXPRP         OFF         [  0]    ***   
       ESTATE_SYM           IEXSYM   1,  1,  1,  1,
       EVAL_HESS            IRECAL              0            # of cyc.
       EXCITATION           IEXCIT              0               ***   
       EXCITE               IEXCIT         EOMEE       [  3]    ***   
       EXTERN_POT           IEXPOT         OFF         [  0]    ***   
       FCGRADNEW            IFCGNW         OFF         [  0]    ***   
       FC_FIELD             IFINFC              0             x 10-6  
       FD_CALTYPE           IFDCAL         GRADONLY    [  0]    ***   
       FD_PROJECT           IFDPRJ         OFF         [  1]    ***   
       FD_STEPSIZE          IDISFD              0            10-4 bohr
       FD_USEGROUP          IFDGRP         FULL        [  0]    ***   
       FILE_RECSIZ          IFLREC              4096           words  
       FINITE_PERT          IFIPER              0             x 10-6  
       FIXGEOM              IFIXGM         OFF         [  0]    ***   
       FOCK                 IFOCK          AO          [  1]    ***   
       FREQ_ALGORI          IVIALG         STANDARD    [  0]    ***   
       FROZEN_CORE          IFROCO         ON          [  1]    ***   
       GAMMA_ABCD           IGABCD         STORE       [  0]    ***   
       GAMMA_ABCI           IGABCI         STORE       [  0]    ***   
       GENBAS_1             IGNBS1              0               ***   
       GENBAS_2             IGNBS2              0               ***   
       GENBAS_3             IGNBS3              0               ***   
       GENBAS_4             IGNBS4              0               ***   
       GEO_CONV             ICONTL              5              H/bohr 
       GEO_MAXCYC           IOPTCY             50               ***   
       GEO_MAXSTEP          IMXSTP            300            millibohr
       GEO_METHOD           INR            SINGLE_POINT[  5]    ***   
       GIAO                 IGIAO          OFF         [  1]    ***   
       GIMIC                IGIMIC         OFF         [  0]    ***   
       GRID                 IGRID          OFF         [  0]    ***   
       GRID_ALGO            IGALGO         SERIAL      [  0]    ***   
       GUESS                IGUESS         MOREAD      [  0]    ***   
       HBAR                 IHBAR          ON          [  1]    ***   
       HESS_TYPE            IHESTP         SCF         [  0]    ***   
       HF2_FILE             IHF2Fl         USE         [  1]    ***   
       HFSTABILITY          ISTABL         OFF         [  0]    ***   
       INCORE               INCORE         OFF         [  0]    ***   
       INPUT_MRCC           IMRCC          ON          [  1]    ***   
       INTEGRALS            INTTYP         VMOL        [  1]    ***   
       JODA_PRINT           IJPRNT              0               ***   
       KEYWORD_OUT          IDMPKW         NO          [  0]    ***   
       LINDEP_TOL           ILINDP              8               ***   
       LINEQ_CONV           IZTACN          10D-  7           cycles  
       LINEQ_EXPOR          ILMAXD              5               ***   
       LINEQ_MAXCY          ILMAXC            100               ***   
       LINEQ_TYPE           ILTYPE         DIIS        [  1]    ***   
       LOCK_ORBOCC          ILOCOC         OFF         [  0]    ***   
       MEMORY_SIZE          IMEMSZ         *********           words  
       MEM_UNIT             IMEMU          GB          [  3]    ***   
       MRCC                 IMRCCC         OFF         [  0]    ***   
       MULTIPLICTY          IMULTP              1               ***   
       NACOUPLING           IVCOUP         OFF         [  0]    ***   
       NEGEVAL              IDIE           ABORT       [  0]    ***   
       NEWNORM              INEWNO         OFF         [  0]    ***   
       NON-HF               INONHF         OFF         [  0]    ***   
       NTOP_TAMP            ITOPT2             15               ***   
       NUC_MODEL            INUCMO         POINT       [  0]    ***   
       OCCUPATION           IOCCU   ESTIMATED BY SCF 
       OPEN-SHELL           IOPEN          SPIN-ORBITAL[  0]    ***   
       OPTVIB               IOPTVB         OFF         [  0]    ***   
       ORBITALS             IORBTP         STANDARD    [  0]    ***   
       PARALLEL             IPARAL         ON          [  1]    ***   
       PARA_INT             IPINTS         ON          [  1]    ***   
       PARA_PRINT           IPPRIN              0               ***   
       PERT_ORB             IPTORB         STANDARD    [  0]    ***   
       POINTS               IGRDFD              0               ***   
       PRINT                IPRNT               0               ***   
       PROPS                IPROPS         OFF         [  0]    ***   
       PROP_INTEGR          IINTYP         INTERNAL    [  0]    ***   
       PSI                  IPSI           OFF         [  0]    ***   
       QC_ALG               IQCALG         FLM         [  0]    ***   
       QC_LINALG            IQCLIN         TRIDIAG     [  2]    ***   
       QC_MAXCYC            IQCMAX          10D-100           cycles  
       QC_MAXSCFCY          IQCMSC          10D- 15           cycles  
       QC_RTRUST            IQCRTR          10D-  0           x 10-3  
       QC_SKIPSCF           IQCSKI         OFF         [  0]    ***   
       QC_START             IQCSTA          10D-  1             ***   
       QRHFGUESS            IQGUES         OFF         [  0]    ***   
       QUARTIC              IQUART         OFF         [  0]    ***   
       RAMAN_INT            IRAMIN         OFF         [  0]    ***   
       RAMAN_ORB            IRAMRE         UNRELAXED   [  0]    ***   
       RDO                  IRDOFM         OFF         [  0]    ***   
       REDUCE_REPR          REDREP         Ir          [  0]    ***   
       REFERENCE            IREFNC         RHF         [  0]    ***   
       RELATIVIST           IRELAT         OFF         [  0]    ***   
       RELAX_DENS           IRDENS         OFF         [  0]    ***   
       RESET_FLAGS          IRESET         OFF         [  0]    ***   
       RESTART_CC           ICCRES         OFF         [  0]    ***   
       ROT_EVEC             ROTVEC              0               ***   
       SAVE_INTS            ISVINT         OFF         [  0]    ***   
       SCALE_ON             ISTCRT              0               ***   
       SCF_CONV             ISCFCV          10D-  8             ***   
       SCF_DAMPING          IDAMP               0             x 10-3  
       SCF_EXPORDE          IRPPOR              6               ***   
       SCF_EXPSTAR          IRPPLS              8               ***   
       SCF_EXTRAPO          IRPP           ON          [  1]    ***   
       SCF_MAXCYC           ISCFCY            150              cycles 
       SCF_NOSTOP           ISCFST         OFF         [  0]    ***   
       SCF_PRINT            ISCFPR              0               ***   
       SCF_PROG             ISCFPR         SCF         [  0]    ***   
       SD_FIELD             IFINSD              0             x 10-6  
       SOPERT               IPERSO         OFF         [  0]    ***   
       SPHERICAL            IDFGHI         ON          [  1]    ***   
       SPINORBIT            ISOCAL         OFF         [  0]    ***   
       SPINROTATIO          ISRCON         OFF         [  0]    ***   
       SPIN_FLIP            ISPFLP         OFF         [  0]    ***   
       SPIN_ORBIT           ISPORB         OFF         [  0]    ***   
       SPIN_SCAL            ISCSMP         OFF         [  0]    ***   
       STEEPSCALE           ISTPSC              1000          x 10-3  
       SUBGROUP             ISUBGP         DEFAULT     [  0]    ***   
       SUBGRPAXIS           ISBXYZ         X           [  0]    ***   
       SYMMETRY             ISYM           ON          [  0]    ***   
       SYM_CHECK            ISYMCK         OVERRIDE    [  1]    ***   
       T3_EXTRAPOL          IT3EXT         OFF         [  0]    ***   
       T4_EXTRAPOL          IT4EXP         OFF         [  0]    ***   
       TAMP_SUM             IEVERY              5               ***   
       TESTSUITE            ITESTS         OFF         [  0]    ***   
       THERMOCH             ITHERM         OFF         [  0]    ***   
       TOL_CHOLESK          ITOLCH          10D-  4             ***   
       TRANGRAD             IRESRM         OFF         [  0]    ***   
       TRANS_INV            ITRAIN         USE         [  0]    ***   
       TREAT_PERT           ITREAT         SIMULTANEOUS[  0]    ***   
       TRIP_ALGORI          ITRALG         NORMAL      [  0]    ***   
       UIJ_THRESHO          IUIJTH              1               ***   
       UNITS                IUNITS         BOHR        [  1]    ***   
       UNOS                 IUNOS          OFF         [  0]    ***   
       UPDATE_HESS          IHUPDT         ON          [  1]    ***   
       VIBPHASE             ISETPH         STANDARD    [  0]    ***   
       VIBRATION            IVIB           NO          [  0]    ***   
       VIB_ALGORIT          IGEALG         STANDARD    [  0]    ***   
       VNATORB              IVNORB         OFF         [  0]    ***   
       VTRAN                IVTRAN         FULL/PARTIAL[  0]    ***   
       XFIELD               IXEFLD              0             x 10-6  
       XFORM_TOL            IXFTOL          10D- 11             ***   
       YFIELD               IYEFLD              0             x 10-6  
       ZFIELD               IZEFLD              0             x 10-6  
       ZSCALE_EXP           IZEXPS         OFF         [  0]    ***   
    -------------------------------------------------------------------
  @GETXYZ-I,     3 atoms read from ZMAT.
   Rotational constants (in cm-1): 
          9.4902686961            14.5740134783            27.2065789719
   Rotational constants (in MHz): 
     284511.1378075283        436917.9935688575        815632.8326432100
********************************************************************************
   The full molecular point group is C2v .
   The largest Abelian subgroup of the full molecular point group is C2v .
   The computational point group is C2v .
********************************************************************************


 ----------------------------------------------------------------
         Coordinates used in calculation (QCOMP) 
 ----------------------------------------------------------------
 Z-matrix   Atomic            Coordinates (in bohr)
  Symbol    Number           X              Y              Z
 ----------------------------------------------------------------
     O         8         0.00000000     0.00000000    -0.12442659
     H         1         0.00000000     1.43152878     0.98737016
     H         1         0.00000000    -1.43152878     0.98737016
 ----------------------------------------------------------------
 
   Interatomic distance matrix (Angstroms) 
 
                 O             H             H    
                [ 1]        [ 2]        [ 3]
  O    [ 1]     0.00000
  H    [ 2]     0.95916     0.00000
  H    [ 3]     0.95916     1.51506     0.00000
 rotcon2
   Rotational constants (in cm-1): 
          9.4902686961            27.2065789719            14.5740134783
   Rotational constants (in MHz): 
     284511.1378075283        815632.8326432100        436917.9935688575
  There is   1 frozen-core orbital.
  There are   92 basis functions.
 @GEOPT-W, Archive file not created for single-point calculation.
 @CHECKOUT-I, Total execution time (CPU/WALL):        0.17/       1.87 seconds.
--executable xjoda finished with status     0 in        2.78 seconds (walltime).
 --invoking executable--
/home/CEISAM/blondel-a/soft/cfour2.1/cfour2.1-serial-mkl/bin/xvmol
 SERIAL VERSION OF MOLECULE STARTED
********************************************************************************
                    INPUT FROM MOL FILE
********************************************************************************
INTGRL        1    0    1    0    0    0    0    0    0                         
         *** CFOUR Program System (Release V0.1) ***                            
Ketene -GS                                                                      
    2    2 X  Y       0.10E-08              0    0                              
   9999.00      3.00                                                            
          8.00000000    1    4    1    1    1    1                              
O #1   0.000000000000000   0.000000000000000  -0.124426592697155                
   11    5                                                                      
   15330.0000000000       5.080000000000000E-004 -1.150000000000000E-004        
  0.000000000000000E+000  0.000000000000000E+000  0.000000000000000E+000        
   2299.00000000000       3.929000000000000E-003 -8.950000000000000E-004        
  0.000000000000000E+000  0.000000000000000E+000  0.000000000000000E+000        
   522.400000000000       2.024300000000000E-002 -4.636000000000000E-003        
  0.000000000000000E+000  0.000000000000000E+000  0.000000000000000E+000        
   147.300000000000       7.918100000000000E-002 -1.872400000000000E-002        
  0.000000000000000E+000  0.000000000000000E+000  0.000000000000000E+000        
   47.5500000000000       0.230687000000000      -5.846300000000000E-002        
  0.000000000000000E+000  0.000000000000000E+000  0.000000000000000E+000        
   16.7600000000000       0.433118000000000      -0.136463000000000             
  0.000000000000000E+000  0.000000000000000E+000  0.000000000000000E+000        
   6.20700000000000       0.350260000000000      -0.175740000000000             
  0.000000000000000E+000  0.000000000000000E+000  0.000000000000000E+000        
   1.75200000000000       4.272800000000000E-002  0.160934000000000             
   1.00000000000000       0.000000000000000E+000  0.000000000000000E+000        
  0.688200000000000      -8.154000000000000E-003  0.603418000000000             
  0.000000000000000E+000  0.000000000000000E+000  0.000000000000000E+000        
  0.238400000000000       2.381000000000000E-003  0.378765000000000             
  0.000000000000000E+000   1.00000000000000       0.000000000000000E+000        
  7.376000000000001E-002  0.000000000000000E+000  0.000000000000000E+000        
  0.000000000000000E+000  0.000000000000000E+000   1.00000000000000             
    6    4                                                                      
   34.4600000000000       1.592800000000000E-002  0.000000000000000E+000        
  0.000000000000000E+000  0.000000000000000E+000                                
   7.74900000000000       9.974000000000000E-002  0.000000000000000E+000        
  0.000000000000000E+000  0.000000000000000E+000                                
   2.28000000000000       0.310492000000000       0.000000000000000E+000        
  0.000000000000000E+000  0.000000000000000E+000                                
  0.715600000000000       0.491026000000000        1.00000000000000             
  0.000000000000000E+000  0.000000000000000E+000                                
  0.214000000000000       0.336337000000000       0.000000000000000E+000        
   1.00000000000000       0.000000000000000E+000                                
  5.974000000000000E-002  0.000000000000000E+000  0.000000000000000E+000        
  0.000000000000000E+000   1.00000000000000                                     
    3    3                                                                      
   2.31400000000000        1.00000000000000       0.000000000000000E+000        
  0.000000000000000E+000                                                        
  0.645000000000000       0.000000000000000E+000   1.00000000000000             
  0.000000000000000E+000                                                        
  0.214000000000000       0.000000000000000E+000  0.000000000000000E+000        
   1.00000000000000                                                             
    2    2                                                                      
   1.42800000000000        1.00000000000000       0.000000000000000E+000        
  0.500000000000000       0.000000000000000E+000   1.00000000000000             
          1.00000000    1    3    1    1    1                                   
H #2   0.000000000000000   1.431528778600000   0.987370157902845                
    6    4                                                                      
   33.8700000000000       6.068000000000000E-003  0.000000000000000E+000        
  0.000000000000000E+000  0.000000000000000E+000                                
   5.09500000000000       4.530800000000000E-002  0.000000000000000E+000        
  0.000000000000000E+000  0.000000000000000E+000                                
   1.15900000000000       0.202822000000000       0.000000000000000E+000        
  0.000000000000000E+000  0.000000000000000E+000                                
  0.325800000000000       0.503903000000000        1.00000000000000             
  0.000000000000000E+000  0.000000000000000E+000                                
  0.102700000000000       0.383421000000000       0.000000000000000E+000        
   1.00000000000000       0.000000000000000E+000                                
  2.526000000000000E-002  0.000000000000000E+000  0.000000000000000E+000        
  0.000000000000000E+000   1.00000000000000                                     
    3    3                                                                      
   1.40700000000000        1.00000000000000       0.000000000000000E+000        
  0.000000000000000E+000                                                        
  0.388000000000000       0.000000000000000E+000   1.00000000000000             
  0.000000000000000E+000                                                        
  0.102000000000000       0.000000000000000E+000  0.000000000000000E+000        
   1.00000000000000                                                             
    2    2                                                                      
   1.05700000000000        1.00000000000000       0.000000000000000E+000        
  0.247000000000000       0.000000000000000E+000   1.00000000000000             
FINISH                                                                          
 
********************************************************************************
 ONE- AND TWO-ELECTRON INTEGRALS OVER SYMMETRY-ADAPTED AOS ARE CALCULATED.

  SPHERICAL HARMONICS ARE USED.
  
  INTEGRALS LESS THAN  0.10E-13 ARE NEGLECTED.

  NUCLEAR REPULSION ENERGY :    9.1765804707 A.U.
  @MOLECU-I, ONE ELECTRON INTEGRALS (CPU/WALL):        0.03/       0.06 SECONDS.
  @TWOEL-I,     262933 INTEGRALS OF SYMMETRY TYPE  I I I I
  @TWOEL-I,     865293 INTEGRALS OF SYMMETRY TYPE  I J I J
  @TWOEL-I,     466389 INTEGRALS OF SYMMETRY TYPE  I I J J
  @TWOEL-I,     575256 INTEGRALS OF SYMMETRY TYPE  I J K L
  @TWOEL-I, TOTAL NUMBER OF 2-E INTEGRALS    2169871.
  @MOLECU-I, TWO ELECTRON INTEGRALS (CPU/WALL):       18.93/       1.04 SECONDS.
 @CHECKOUT-I, Total execution time (CPU/WALL):       18.98/       1.14 seconds.

Running with 20 threads/proc

--executable xvmol finished with status     0 in        2.37 seconds (walltime).
 --invoking executable--
/home/CEISAM/blondel-a/soft/cfour2.1/cfour2.1-serial-mkl/bin/xvmol2ja
 @GETMEM-I,  Allocated  238418 MB of main memory.
 @CHECKOUT-I, Total execution time (CPU/WALL):        0.18/       0.07 seconds.
--executable xvmol2ja finished with status     0 in        0.64 seconds (walltime).
 --invoking executable--
/home/CEISAM/blondel-a/soft/cfour2.1/cfour2.1-serial-mkl/bin/xvscf
  There are   92 functions in the AO basis.

  There are 4 irreducible representations.

       Irrep        # of functions
         1                 35
         2                 18
         3                 27
         4                 12


  Parameters for SCF calculation: 
        SCF reference function:  RHF  
  Maximum number of iterations:  150
     Full symmetry point group: C2v 
     Computational point group: C2v 
        Initial density matrix: MOREAD                 
     SCF convergence tolerance: 10**(- 8)
  DIIS convergence acceleration:  ON
          Latest start for DIIS:   8
                     DIIS order:   6

  Memory information:     401180 words required.
  Fock matrices are constructed from AO integral file.
 @GETMEM-I,  Allocated       3 MB of main memory.
  Initialization and symmetry analysis required      0.003 seconds.

  @INITGES-I, Occupancies from core Hamiltonian:

          Alpha population by irrep:   3    1    1    0
           Beta population by irrep:   3    1    1    0


 total no. of electrons in initial guess :  0.000000000000000E+000
  --------------------------------------------------------------------
  Iteration         Total Energy            Largest Density Difference
  --------------------------------------------------------------------
       0             9.176580470691922              0.0000000000D+00
   current occupation vector 
     3  1  1  0
     3  1  1  0
       1           -61.321567078149734              0.1227179809D+02
   current occupation vector 
     3  1  1  0
     3  1  1  0
       2           -63.703478878135662              0.3388566478D+02
   current occupation vector 
     3  0  2  0
     3  0  2  0
       3           -70.945556070474098              0.3388588512D+02
   current occupation vector 
     3  1  1  0
     3  1  1  0
       4           -67.933049998589411              0.2854019866D+02
   current occupation vector 
     3  0  2  0
     3  0  2  0
       5           -72.333304653154727              0.2853969670D+02
   current occupation vector 
     3  1  1  0
     3  1  1  0
       6           -68.914822887955879              0.2669815983D+02
   current occupation vector 
     3  0  2  0
     3  0  2  0
       7           -72.705100216541965              0.2669837475D+02
   current occupation vector 
     3  1  1  0
     3  1  1  0
       8           -69.176648139040466              0.2626250513D+02
   current occupation vector 
     3  0  2  0
     3  0  2  0
       9           -75.826173496346200              0.2626348917D+02
   current occupation vector 
     3  1  1  0
     3  1  1  0
      10           -76.053721517722863              0.4680654876D+00
   current occupation vector 
     3  1  1  0
     3  1  1  0
      11           -76.060347202365534              0.6705681645D-01
   current occupation vector 
     3  1  1  0
     3  1  1  0
      12           -76.060455386100443              0.9994385577D-02
   current occupation vector 
     3  1  1  0
     3  1  1  0
      13           -76.060464827474902              0.3927110201D-02
   current occupation vector 
     3  1  1  0
     3  1  1  0
      14           -76.060466315635253              0.2205535115D-02
   current occupation vector 
     3  1  1  0
     3  1  1  0
      15           -76.060466331815647              0.2628798230D-03
   current occupation vector 
     3  1  1  0
     3  1  1  0
      16           -76.060466332028170              0.1420125098D-04
   current occupation vector 
     3  1  1  0
     3  1  1  0
      17           -76.060466332048492              0.7657480547D-05
   current occupation vector 
     3  1  1  0
     3  1  1  0
      18           -76.060466332048534              0.1820066419D-05
   current occupation vector 
     3  1  1  0
     3  1  1  0
      19           -76.060466332048762              0.3147259759D-06
   current occupation vector 
     3  1  1  0
     3  1  1  0
      20           -76.060466332049160              0.2341016819D-07
   current occupation vector 
     3  1  1  0
     3  1  1  0

  SCF has converged.

 Density matrix saved to file den.dat
 total electron number:   9.99999999999997     
     E(SCF)=       -76.060466332049302              0.4719836771D-08

  Eigenvector printing suppressed.

 @PUTMOS-I, Writing converged MOs to NEWMOS. 
 @PUTMOS-I, Symmetry   1 Full Blocks  8 Partial Blocksize   3
 @PUTMOS-I, Symmetry   2 Full Blocks  4 Partial Blocksize   2
 @PUTMOS-I, Symmetry   3 Full Blocks  6 Partial Blocksize   3
 @PUTMOS-I, Symmetry   4 Full Blocks  3 Partial Blocksize   0
 @PUTFOCK-I, Writing converged Fock matrix to NEWFOCK. 
 @PUTFOCK-I, Symmetry   1 Full Blocks  8 Partial Blocksize   3
 @PUTFOCK-I, Symmetry   2 Full Blocks  4 Partial Blocksize   2
 @PUTFOCK-I, Symmetry   3 Full Blocks  6 Partial Blocksize   3
 @PUTFOCK-I, Symmetry   4 Full Blocks  3 Partial Blocksize   0


 
  ORBITAL EIGENVALUES (ALPHA)  (1H = 27.2113834 eV)

       MO #        E(hartree)               E(eV)           FULLSYM    COMPSYM
       ----   --------------------   --------------------   -------   ---------
    1     1         -20.5676125085        -559.6731895916      A1        A1 (1)
    2     2          -1.3527399854         -36.8099263838      A1        A1 (1)
    3    54          -0.7164334547         -19.4951454167      B2        B2 (3)
    4     3          -0.5849370113         -15.9169452806      A1        A1 (1)
    5    36          -0.5102575293         -13.8848132617      B1        B1 (2)
  +++++++++++++++++++++++++++++++++++++++++++++++++++++++++++++++++++++++++++++
    6     4           0.0294082370           0.8002388111      A1        A1 (1)
    7    55           0.0476882064           1.2976620680      B2        B2 (3)
    8     5           0.1359281134           3.6987920099      A1        A1 (1)
    9    37           0.1586372239           4.3167383215      B1        B1 (2)
   10     6           0.1751861540           4.7670576030      A1        A1 (1)
   11    56           0.1830229305           4.9803071324      B2        B2 (3)
   12    57           0.2273956426           6.1877500151      B2        B2 (3)
   13     7           0.2449923924           6.6665819188      A1        A1 (1)
   14    81           0.2653260400           7.2198886008      A2        A2 (4)
   15    38           0.3003415504           8.1727090799      B1        B1 (2)
   16     8           0.3103486177           8.4450152242      A1        A1 (1)
   17    58           0.3658266327           9.9546487591      B2        B2 (3)
   18     9           0.4377884286          11.9128287796      A1        A1 (1)
   19    59           0.4664504196          12.6927612039      B2        B2 (3)
   20    60           0.5994562026          16.3120325609      B2        B2 (3)
   21    10           0.6584606771          17.9176259375      A1        A1 (1)
   22    11           0.7082091150          19.2713497545      A1        A1 (1)
   23    82           0.7224386780          19.6585558500      A2        A2 (4)
   24    39           0.7315957081          19.9077313068      B1        B1 (2)
   25    12           0.8310077736          22.6128711360      A1        A1 (1)
   26    40           0.8463600883          23.0306288584      B1        B1 (2)
   27    13           0.8916943287          24.2642362546      A1        A1 (1)
   28    61           0.9129301678          24.8420928136      B2        B2 (3)
   29    41           0.9183006186          24.9882302093      B1        B1 (2)
   30    83           0.9225173463          25.1029732023      A2        A2 (4)
   31    62           0.9308211839          25.3289321113      B2        B2 (3)
   32    14           0.9620330599          26.1782504370      A1        A1 (1)
   33    15           1.0217717909          27.8038239506      A1        A1 (1)
   34    63           1.0438971096          28.4058844803      B2        B2 (3)
   35    42           1.0828860963          29.4668287451      B1        B1 (2)
   36    64           1.1090787335          30.1795666380      B2        B2 (3)
   37    84           1.1764651281          32.0132436575      A2        A2 (4)
   38    16           1.1822083013          32.1695233444      A1        A1 (1)
   39    65           1.2601740692          34.2910797482      B2        B2 (3)
   40    85           1.5108806124          41.1131516154      A2        A2 (4)
   41    17           1.5362443663          41.8033344482      A1        A1 (1)
   42    43           1.5844218215          43.1143096511      B1        B1 (2)
   43    18           1.8038846134          49.0861958256      A1        A1 (1)
   44    66           1.8202169822          49.5306221745      B2        B2 (3)
   45    67           1.9872776647          54.0765744570      B2        B2 (3)
   46    19           2.1189047879          57.6583305723      A1        A1 (1)
   47    44           2.2626988830          61.5711668248      B1        B1 (2)
   48    86           2.3162322744          63.0278844615      A2        A2 (4)
   49    20           2.3260306897          63.2945128966      A1        A1 (1)
   50    21           2.4185797695          65.8129013919      A1        A1 (1)
   51    45           2.4206617744          65.8695556249      B1        B1 (2)
   52    68           2.4427504911          66.4706201642      B2        B2 (3)
   53    22           2.4790947805          67.4595985582      A1        A1 (1)
   54    69           2.6763116647          72.8261428068      B2        B2 (3)
   55    46           2.6976845994          73.4077299278      B1        B1 (2)
   56    23           2.7723483654          75.4394342895      A1        A1 (1)
   57    70           2.8178783750          76.6783688361      B2        B2 (3)
   58    87           2.8849385166          78.5031680600      A2        A2 (4)
   59    71           3.6549167086          99.4553398534      B2        B2 (3)
   60    24           3.7453741849         101.9168129218      A1        A1 (1)
   61    88           4.0183502679         109.3448697741      A2        A2 (4)
   62    47           4.0851536669         111.1626826788      B1        B1 (2)
   63    25           4.1673579200         113.3995741267      A1        A1 (1)
   64    72           4.2489778194         115.6205645027      B2        B2 (3)
   65    48           4.2905682719         116.7522982508      B1        B1 (2)
   66    26           4.3755642705         119.0651569555      A1        A1 (1)
   67    89           4.3781349482         119.1351086514      A2        A2 (4)
   68    49           4.4061973473         119.8987253534      B1        B1 (2)
   69    73           4.5175126392         122.9277684407      B2        B2 (3)
   70    27           4.7260617855         128.6026792175      A1        A1 (1)
   71    74           4.8467960754         131.8880262682      B2        B2 (3)
   72    75           5.1493122111         140.1199088216      B2        B2 (3)
   73    90           5.1537463471         140.2405677970      A2        A2 (4)
   74    76           5.2555073406         143.0096252073      B2        B2 (3)
   75    28           5.3305761623         145.0523516954      A1        A1 (1)
   76    50           5.5259567461         150.3689276696      B1        B1 (2)
   77    29           5.6676950376         154.2258226614      A1        A1 (1)
   78    30           6.1782230669         168.1179966051      A1        A1 (1)
   79    77           6.5135947674         177.2439245266      B2        B2 (3)
   80    51           6.7095266521         182.5755021637      B1        B1 (2)
   81    31           6.8989290368         187.7294030709      A1        A1 (1)
   82    52           7.1335562016         194.1139328066      B1        B1 (2)
   83    53           7.2529450774         197.3626692796      B1        B1 (2)
   84    78           7.3075036611         198.8472838188      B2        B2 (3)
   85    91           7.3151576649         199.0555598501      A2        A2 (4)
   86    32           7.3267277916         199.3703990046      A1        A1 (1)
   87    92           7.3557078218         200.1589857170      A2        A2 (4)
   88    33           7.5373093892         205.1006155952      A1        A1 (1)
   89    34           7.9023262488         215.0332293066      A1        A1 (1)
   90    79           7.9267699477         215.6983761709      B2        B2 (3)
   91    80           8.8081111944         239.6808907395      B2        B2 (3)
   92    35          15.7739096927         429.2299043652      A1        A1 (1)


  VSCF finished.

 @CHECKOUT-I, Total execution time (CPU/WALL):        4.91/       0.75 seconds.
--executable xvscf finished with status     0 in        1.74 seconds (walltime).
 --invoking executable--
/home/CEISAM/blondel-a/soft/cfour2.1/cfour2.1-serial-mkl/bin/xvtran
 @GETMEM-I,  Allocated  238418 MB of main memory.
  Full RHF integral transformation
  The following   1 MOs will be dropped:
    1
  There are  91 active molecular orbitals.
  Transformation of IIII integrals :
  1 pass through the AO integral file was required.
      262933 AO integrals were read.
      266728 MO integrals were written to HF2.
  Transformation of IIJJ integrals :
  1 pass through the AO integral file was required.
      466389 AO integrals were read.
      480525 MO integrals were written to HF2.
  Transformation of IJIJ integrals :
  1 pass through the AO integral file was required.
      865293 AO integrals were read.
      887262 MO integrals were written to HF2.
  Transformation of IJKL integrals :
  1 pass through the AO integral file was required.
      575256 AO integrals were read.
      594864 MO integrals were written to HF2.
  Summary of active molecular orbitals: 
------------------------------------------------------------------------
 
  Index      Eigenvalue    Symmetry    Index      Eigenvalue    Symmetry
------------------------------------------------------------------------
     1        -1.3527400        1        47         4.0851537        2
     2        -0.5849370        1        48         4.2905683        2
     3        -0.5102575        2        49         4.4061973        2
     4        -0.7164335        3        50         5.5259567        2
     5         0.0294082        1        51         6.7095267        2
     6         0.1359281        1        52         7.1335562        2
     7         0.1751862        1        53         7.2529451        2
     8         0.2449924        1        54         0.0476882        3
     9         0.3103486        1        55         0.1830229        3
    10         0.4377884        1        56         0.2273956        3
    11         0.6584607        1        57         0.3658266        3
    12         0.7082091        1        58         0.4664504        3
    13         0.8310078        1        59         0.5994562        3
    14         0.8916943        1        60         0.9129302        3
    15         0.9620331        1        61         0.9308212        3
    16         1.0217718        1        62         1.0438971        3
    17         1.1822083        1        63         1.1090787        3
    18         1.5362444        1        64         1.2601741        3
    19         1.8038846        1        65         1.8202170        3
    20         2.1189048        1        66         1.9872777        3
    21         2.3260307        1        67         2.4427505        3
    22         2.4185798        1        68         2.6763117        3
    23         2.4790948        1        69         2.8178784        3
    24         2.7723484        1        70         3.6549167        3
    25         3.7453742        1        71         4.2489778        3
    26         4.1673579        1        72         4.5175126        3
    27         4.3755643        1        73         4.8467961        3
    28         4.7260618        1        74         5.1493122        3
    29         5.3305762        1        75         5.2555073        3
    30         5.6676950        1        76         6.5135948        3
    31         6.1782231        1        77         7.3075037        3
    32         6.8989290        1        78         7.9267699        3
    33         7.3267278        1        79         8.8081112        3
    34         7.5373094        1        80         0.2653260        4
    35         7.9023262        1        81         0.7224387        4
    36        15.7739097        1        82         0.9225173        4
    37         0.1586372        2        83         1.1764651        4
    38         0.3003416        2        84         1.5108806        4
    39         0.7315957        2        85         2.3162323        4
    40         0.8463601        2        86         2.8849385        4
    41         0.9183006        2        87         4.0183503        4
    42         1.0828861        2        88         4.3781349        4
    43         1.5844218        2        89         5.1537463        4
    44         2.2626989        2        90         7.3151577        4
    45         2.4206618        2        91         7.3557078        4
    46         2.6976846        2
------------------------------------------------------------------------
  -1.35273998542035      -0.584937011344914      -0.510257529269556     
 -0.716433454709381       2.940823696395435E-002  0.135928113447371     
  0.175186154003312       0.244992392367224       0.310348617709394     
  0.437788428633743       0.658460677066718       0.708209114958843     
  0.831007773605772       0.891694328727026       0.962033059922478     
   1.02177179094221        1.18220830126709        1.53624436632707     
   1.80388461343561        2.11890478792392        2.32603068966315     
   2.41857976952036        2.47909478053864        2.77234836541037     
   3.74537418490244        4.16735792002139        4.37556427048479     
   4.72606178550615        5.33057616230626        5.66769503756319     
   6.17822306693477        6.89892903684055        7.32672779159712     
   7.53730938924599        7.90232624875047        15.7739096927076     
  0.158637223916077       0.300341550438807       0.731595708094910     
  0.846360088345000       0.918300618605234        1.08288609630713     
   1.58442182146017        2.26269888302575        2.42066177439810     
   2.69768459944434        4.08515366693231        4.29056827191031     
   4.40619734729979        5.52595674608880        6.70952665213302     
   7.13355620157934        7.25294507737345       4.768820640063321E-002
  0.183022930484945       0.227395642628662       0.365826632655477     
  0.466450419566817       0.599456202614666       0.912930167807126     
  0.930821183876031        1.04389710962909        1.10907873349729     
   1.26017406921709        1.82021698222369        1.98727766472279     
   2.44275049111416        2.67631166472832        2.81787837497905     
   3.65491670862171        4.24897781943448        4.51751263923982     
   4.84679607535903        5.14931221106398        5.25550734062785     
   6.51359476735025        7.30750366108743        7.92676994771667     
   8.80811119435868       0.265326040014813       0.722438677999944     
  0.922517346262240        1.17646512810043        1.51088061239183     
   2.31623227437525        2.88493851657570        4.01835026785637     
   4.37813494816473        5.15374634708969        7.31515766486684     
   7.35570782178490     
 @CHECKOUT-I, Total execution time (CPU/WALL):       10.58/       0.69 seconds.
--executable xvtran finished with status     0 in        1.26 seconds (walltime).
 --invoking executable--
/home/CEISAM/blondel-a/soft/cfour2.1/cfour2.1-serial-mkl/bin/xintprc
 @GETMEM-I,  Allocated  238418 MB of main memory.
  @GMOIAA-I, Processing MO integrals for spin case AA.
  @GMOIAA-I, Generation of integral list completed.
                      TYPE                NUMBER
                      ----               --------
                      PPPP               1862118
                      PPPH                340336
                      PPHH                 15793
                      PHPH                 10160
                      PHHH                   950
                      HHHH                    22

                     TOTAL               2229379

  @FORMT2-I, Second-order MP correlation energies:
            ------------------------------------------------
            E(SCF)                  =    -76.060466332049 a.u.
            E2(AA)                  =     -0.032587552856 a.u.
            E2(AB)                  =     -0.203341492940 a.u.
            E2(TOT)                 =     -0.268516598652 a.u.
            Total MP2 energy        =    -76.328982930701 a.u.
            ------------------------------------------------
   Largest T2 amplitudes for spin case AB:
       _       _                 _       _                 _       _
   i   j   a   b             i   j   a   b             i   j   a   b
-----------------------------------------------------------------------------
[  4   4  58  58]-0.01957 [  2   2  14  14]-0.01876 [  3   3  42  42]-0.01508
[  4   4  62  58]-0.01385 [  4   4  58  62]-0.01385 [  2   4  14  58] 0.01346
[  4   2  58  14] 0.01346 [  4   4  59  59]-0.01310 [  3   3  41  41]-0.01301
[  2   2  59  59]-0.01260 [  4   4  62  62]-0.01218 [  3   3  42  41]-0.01189
[  3   3  41  42]-0.01189 [  2   3  14  41] 0.01185 [  3   2  41  14] 0.01185
-----------------------------------------------------------------------------
   Norm of T2AB vector (    31238 symmetry allowed elements):  0.2173862521.
-----------------------------------------------------------------------------
 @CHECKOUT-I, Total execution time (CPU/WALL):        4.96/       0.61 seconds.
--executable xintprc finished with status     0 in        1.21 seconds (walltime).
  calling xncc 
 --invoking executable--
/home/CEISAM/blondel-a/soft/cfour2.1/cfour2.1-serial-mkl/bin/xncc
 @GETMEM-I,  Allocated       7 MB of main memory.

Running with 20 threads/proc

Following the lowest-energy eigenvector.
Using discrete restarting.
Using an orthogonal subspace.
Orthogonalizing against previous roots.
Using Modified Gram-Schmidt orthogonalization.

Using DIIS to accelerate the convergence of T1 and T2
Using immediate high-order contributions
Performing 3 CCSD sub-iterations
Damping factor for T3: 0.000000
Damping factor for T4: 0.000000

Transposes are coarse-threaded

Memory limit:                232.831 GiB
Minimum memory requirement:   25.849 MiB
Compromise memory amount:      1.388 GiB
Optimal memory requirement:    1.624 GiB

List              Location   Size        Cached Hunks Est. Disk I/O
----------------- ---------- ----------- ------ ----- -------------

           HR_DAV      470:1    7.413 MiB    Yes     -     1.629 GiB
                R        471  948.844 KiB    Yes     -    83.394 MiB
            R_DAV      470:0    7.413 MiB    Yes     -     3.158 GiB
           T_DIIS       70:0    1.196 MiB    Yes     -    21.523 MiB
           Z_DIIS       70:1    1.196 MiB    Yes     -    35.872 MiB
          <AI|bj>         18  244.047 KiB    Yes     -    38.130 MiB
          <Ab|Cd>        233  110.649 MiB    Yes     -   248.095 GiB
          <Ab|Ci>         30    5.122 MiB    Yes     -     9.779 GiB
          <Ab|Ij>         16  244.047 KiB    Yes     -   691.387 MiB
          <Ai|Bj>         25  244.047 KiB    Yes     -    32.889 MiB
          <Aj|bI>         21  244.047 KiB     No     -         0   B
          <Ij|Ka>         10   11.500 KiB    Yes     -    22.034 MiB
          <Ij|Kl>         13      576   B    Yes     -    34.312 KiB
           DD(AI)      448:8      856   B    Yes     -    43.500 KiB
        DD(Ab,Ij)        450  244.047 KiB    Yes     -    14.783 MiB
            F(EA)       92:0   16.664 KiB    Yes     -    14.467 MiB
            F(EM)       93:0      856   B    Yes     -   518.281 KiB
            F(MI)       91:0       48   B    Yes     -    51.516 KiB
           HR(AI)      490:2      856   B    Yes     -     2.947 MiB
        HR(Ab,Ij)        463  244.047 KiB    Yes     -     1.543 GiB
            Q(AI)      190:2      856   B    Yes     -   150.469 KiB
         Q(Ab,Ij)         50  244.047 KiB    Yes     -   128.697 MiB
            R(AI)      490:0      856   B    Yes     -     8.296 MiB
         R(Ab,Ij)        446  244.047 KiB    Yes     -     3.076 GiB
            T(AI)       90:0      856   B    Yes     -     1.481 MiB
         T(Ab,Ij)         46  244.047 KiB    Yes     -   492.622 MiB
         W(Mn,Ij)         53      576   B    Yes     -   397.688 KiB
        W~(Ab,Ej)        130    5.122 MiB    Yes     -     7.029 GiB
        W~(EM,bj)         56  244.047 KiB    Yes     -   298.862 MiB
        W~(Em,Bj)         58  244.047 KiB    Yes     -   366.785 MiB
        W~(Ij,Mb)        110   11.500 KiB    Yes     -     8.131 MiB
       W~~(Ab,Ej)        169    5.122 MiB    Yes     -     1.130 GiB
       W~~(EM,bj)         76  244.047 KiB    Yes     -    30.506 MiB
       W~~(Em,Bj)         78  244.047 KiB    Yes     -    30.506 MiB
       W~~(Ij,Mb)        165   11.500 KiB    Yes     -     2.538 MiB
         X(Ab,Ef)        433  110.649 MiB    Yes     -   160.066 GiB
         X(Ab,Ej)        430    5.122 MiB    Yes     -     9.126 GiB
         X(Ab,Ij)        416  244.047 KiB     No     -         0   B
            X(EA)      492:0   16.664 KiB    Yes     -     9.528 MiB
            X(EM)      493:0      856   B    Yes     -   244.688 KiB
         X(EM,bj)        418  244.047 KiB    Yes     -   152.452 MiB
         X(Ef,Am)        469    5.122 MiB     No     -         0   B
         X(Em,Bj)        425  244.047 KiB    Yes     -   207.889 MiB
         X(Ij,Mb)        410   11.500 KiB    Yes     -    15.930 MiB
            X(MI)      491:0       48   B    Yes     -    24.375 KiB
         X(Mn,Ie)        465   11.500 KiB     No     -         0   B
         X(Mn,Ij)        413      576   B    Yes     -   270.000 KiB
            Z(AI)       90:2      856   B    Yes     -   388.711 KiB
         Z(Ab,Ij)         63  244.047 KiB    Yes     -   110.822 MiB
      HR(abc,ijk)    HR3FILE   20.292 MiB    Yes     1    51.810 GiB
            HR3_1      HR3_1   20.292 MiB    Yes     1    32.106 GiB
           HR3_10     HR3_10   20.292 MiB    Yes     1     7.300 GiB
           HR3_11     HR3_11   20.292 MiB    Yes     1     1.962 GiB
           HR3_12     HR3_12   20.292 MiB    Yes     1     1.962 GiB
           HR3_13     HR3_13   20.292 MiB    Yes     1     1.962 GiB
           HR3_14     HR3_14   20.292 MiB    Yes     1     1.962 GiB
           HR3_15     HR3_15   20.292 MiB    Yes     1     1.962 GiB
           HR3_16     HR3_16   20.292 MiB    Yes     1     1.962 GiB
           HR3_17     HR3_17   20.292 MiB    Yes     1     1.962 GiB
           HR3_18     HR3_18   20.292 MiB    Yes     1     1.962 GiB
           HR3_19     HR3_19   20.292 MiB    Yes     1     1.962 GiB
            HR3_2      HR3_2   20.292 MiB    Yes     1     7.457 GiB
           HR3_20     HR3_20   20.292 MiB    Yes     1     1.962 GiB
           HR3_21     HR3_21   20.292 MiB    Yes     1     3.218 GiB
           HR3_22     HR3_22   20.292 MiB    Yes     1     3.218 GiB
           HR3_23     HR3_23   20.292 MiB    Yes     1     3.218 GiB
           HR3_24     HR3_24   20.292 MiB    Yes     1     3.218 GiB
           HR3_25     HR3_25   20.292 MiB    Yes     1     3.218 GiB
           HR3_26     HR3_26   20.292 MiB    Yes     1     3.218 GiB
           HR3_27     HR3_27   20.292 MiB    Yes     1     3.218 GiB
           HR3_28     HR3_28   20.292 MiB    Yes     1     3.218 GiB
           HR3_29     HR3_29   20.292 MiB    Yes     1     3.218 GiB
            HR3_3      HR3_3   20.292 MiB    Yes     1     7.536 GiB
           HR3_30     HR3_30   20.292 MiB    Yes     1     3.218 GiB
           HR3_31     HR3_31   20.292 MiB     No     1         0   B
            HR3_4      HR3_4   20.292 MiB    Yes     1     7.614 GiB
            HR3_5      HR3_5   20.292 MiB    Yes     1     7.693 GiB
            HR3_6      HR3_6   20.292 MiB    Yes     1     7.771 GiB
            HR3_7      HR3_7   20.292 MiB    Yes     1     7.850 GiB
            HR3_8      HR3_8   20.292 MiB    Yes     1     7.928 GiB
            HR3_9      HR3_9   20.292 MiB    Yes     1     8.007 GiB
       R(abc,ijk)     R3FILE   20.292 MiB    Yes     1   169.559 GiB
             R3_1       R3_1   20.292 MiB    Yes     1    61.936 GiB
            R3_10      R3_10   20.292 MiB    Yes     1    14.758 GiB
            R3_11      R3_11   20.292 MiB    Yes     1     5.495 GiB
            R3_12      R3_12   20.292 MiB    Yes     1     5.495 GiB
            R3_13      R3_13   20.292 MiB    Yes     1     5.495 GiB
            R3_14      R3_14   20.292 MiB    Yes     1     5.495 GiB
            R3_15      R3_15   20.292 MiB    Yes     1     5.495 GiB
            R3_16      R3_16   20.292 MiB    Yes     1     5.495 GiB
            R3_17      R3_17   20.292 MiB    Yes     1     5.495 GiB
            R3_18      R3_18   20.292 MiB    Yes     1     5.495 GiB
            R3_19      R3_19   20.292 MiB    Yes     1     5.495 GiB
           R3_1_1     R3_1_1   20.292 MiB    Yes     1     1.486 GiB
             R3_2       R3_2   20.292 MiB    Yes     1    14.915 GiB
            R3_20      R3_20   20.292 MiB    Yes     1     3.140 GiB
            R3_21      R3_21   20.292 MiB    Yes     1     3.218 GiB
            R3_22      R3_22   20.292 MiB    Yes     1     3.218 GiB
            R3_23      R3_23   20.292 MiB    Yes     1     3.218 GiB
            R3_24      R3_24   20.292 MiB    Yes     1     3.218 GiB
            R3_25      R3_25   20.292 MiB    Yes     1     3.218 GiB
            R3_26      R3_26   20.292 MiB    Yes     1     3.218 GiB
            R3_27      R3_27   20.292 MiB    Yes     1     3.218 GiB
            R3_28      R3_28   20.292 MiB    Yes     1     3.218 GiB
            R3_29      R3_29   20.292 MiB    Yes     1     3.218 GiB
           R3_2_1     R3_2_1   19.920 MiB    Yes     1     1.459 GiB
             R3_3       R3_3   20.292 MiB    Yes     1    14.993 GiB
            R3_30      R3_30   20.292 MiB    Yes     1     3.218 GiB
            R3_31      R3_31   20.292 MiB     No     1         0   B
           R3_3_1     R3_3_1   20.272 MiB    Yes     1     1.485 GiB
             R3_4       R3_4   20.292 MiB    Yes     1    15.072 GiB
           R3_4_1     R3_4_1   19.900 MiB    Yes     1     1.457 GiB
             R3_5       R3_5   20.292 MiB    Yes     1    15.150 GiB
             R3_6       R3_6   20.292 MiB    Yes     1    15.229 GiB
             R3_7       R3_7   20.292 MiB    Yes     1    15.307 GiB
             R3_8       R3_8   20.292 MiB    Yes     1    15.386 GiB
             R3_9       R3_9   20.292 MiB    Yes     1    15.464 GiB
       T(abc,ijk)     T3FILE   20.292 MiB    Yes     1     2.101 GiB
       Z(abc,ijk)     Z3FILE   20.292 MiB    Yes     1   913.147 MiB

Simulation and memory analysis took 2.800 seconds

MP2 correlation energy:  -0.268516598651546

Non-iterative calculation of MP2 took 0.067 cpu seconds and 0.003 walltime seconds at 0.407 Gflops/sec

Total MP2 energy: -76.328982930700846

Beginning iterative solution of CCSDT equations:

It.  Correlation Energy T1 Residual T2 Residual T3 Residual CPU Time (s) Walltime (s)
-------------------------------------------------------------------------------------
  1  -0.281546094159829 1.99264e-03 2.33163e-03 6.47827e-04       10.914        0.549
  2  -0.281755288640007 1.93062e-04 2.24691e-04 5.82656e-05       22.828        1.145
  3  -0.281890745268240 5.47071e-05 6.91640e-05 4.09113e-05       19.779        0.992
  4  -0.281908895705831 7.26439e-06 4.82262e-06 8.77063e-06       19.868        0.996
  5  -0.281914988694356 3.92779e-06 4.11338e-06 5.57000e-06       18.641        0.934

   A    I                     A    I                     A    I                  
-------------------------- -------------------------- -------------------------- 
   9    5 -0.0142854615137   62    5  0.0039182004724   34    3  0.0031434840530 
  15    5 -0.0123444962996   26    5 -0.0036320387686   46    4 -0.0029379430723 
   8    4  0.0083809636494   71    3  0.0034091022701   24    5  0.0028978887894 
  16    4 -0.0074731250783    6    4 -0.0032378824282   13    4  0.0026242708753 
  45    3  0.0049792151746   70    4  0.0031538099934   29    5 -0.0025966679942 

   A    B    I    J                     A    B    I    J                  
------------------------------------ ------------------------------------ 
  19   19    3    3 -0.0223465331998   34   34    3    3 -0.0136134119141 
  27   27    4    4 -0.0206031455625    9    9    5    5 -0.0135275543449 
  34   19    3    3 -0.0159752919869   27   19    4    3  0.0134948195500 
  19   34    3    3 -0.0159752919869   19   27    3    4  0.0134948195500 
  35   35    5    5 -0.0159481827372   35   29    5    5 -0.0130363874998 
  20   20    3    3 -0.0155523476630   29   35    5    5 -0.0130363874998 
  20   20    4    4 -0.0147616689081   27   16    4    4  0.0129974581530 
  29   29    5    5 -0.0138998504066 

It.  Correlation Energy T1 Residual T2 Residual T3 Residual CPU Time (s) Walltime (s)
-------------------------------------------------------------------------------------
  6  -0.281915836532170 4.61975e-07 6.51116e-07 2.03819e-06       18.767        0.941
  7  -0.281916274209496 3.47641e-07 5.32297e-07 1.07118e-06       18.983        0.952
  8  -0.281916312875350 3.10787e-08 1.85069e-07 4.74451e-07       18.642        0.935
  9  -0.281916357626713 4.31356e-08 1.37507e-07 2.78176e-07       18.340        0.919
 10  -0.281916356752052 7.37921e-09 6.24658e-08 1.79328e-07       18.892        0.947

   A    I                     A    I                     A    I                  
-------------------------- -------------------------- -------------------------- 
   9    5 -0.0142841273086   62    5  0.0039181724520   34    3  0.0031433948808 
  15    5 -0.0123433706125   26    5 -0.0036320417268   46    4 -0.0029379933009 
   8    4  0.0083793565047   71    3  0.0034091287509   24    5  0.0028976036677 
  16    4 -0.0074727118854    6    4 -0.0032363511079   13    4  0.0026236955427 
  45    3  0.0049791892127   70    4  0.0031538287994   29    5 -0.0025967516880 

   A    B    I    J                     A    B    I    J                  
------------------------------------ ------------------------------------ 
  19   19    3    3 -0.0223466181995   34   34    3    3 -0.0136134881903 
  27   27    4    4 -0.0206032254294    9    9    5    5 -0.0135272418001 
  34   19    3    3 -0.0159753762082   19   27    3    4  0.0134948357509 
  19   34    3    3 -0.0159753762082   27   19    4    3  0.0134948357509 
  35   35    5    5 -0.0159482599219   35   29    5    5 -0.0130364255716 
  20   20    3    3 -0.0155523674628   29   35    5    5 -0.0130364255716 
  20   20    4    4 -0.0147616008035   27   16    4    4  0.0129975031653 
  29   29    5    5 -0.0138998959215 

It.  Correlation Energy T1 Residual T2 Residual T3 Residual CPU Time (s) Walltime (s)
-------------------------------------------------------------------------------------

CCSDT iterations converged in 10 cycles and 9.310 seconds (0.931 s/it.) at 31.203 Gflops/sec

Total CCSDT energy: -76.342382688801351

             _
Formation of H took 0.174 seconds at 6.438 Gflops/sec

Searching for 1 roots in irrep 1

EOMEE-CCSD guess vector:

   A    I                  
-------------------------- 
   6    4  1.0000000000000 

Beginning iterative solution of EOMEE-CCSDT equations:

It.  Correlation Energy R1 Residual R2 Residual R3 Residual CPU Time (s) Walltime (s)
-------------------------------------------------------------------------------------
  1   0.531555095738386 3.25084e-02 7.29437e-02 2.58604e-03       38.077        2.160
  2   0.437282999033259 8.14131e-02 2.86339e-02 3.91972e-03       36.089        1.809
  3   0.388857403978589 2.12714e-02 9.34872e-03 4.63171e-03       38.068        1.908
  4   0.383413394929550 2.76366e-02 4.92222e-03 4.75953e-03       39.485        1.979
  5   0.371116792881682 7.28100e-03 7.14891e-03 3.30289e-03       41.559        2.083
  6   0.365856594719140 4.87284e-03 2.26566e-03 1.62248e-03       42.324        2.121
  7   0.366018647915148 3.83674e-03 2.20342e-03 6.50868e-04       44.437        2.227
  8   0.366061385539530 3.32268e-03 1.64650e-03 4.81052e-04       46.174        2.314
  9   0.365591366887467 2.23409e-03 1.43992e-03 3.08949e-04       51.050        2.559
 10   0.365485267428342 1.37277e-03 1.08069e-03 2.88885e-04       49.794        2.496
 11   0.365683357924315 6.52093e-04 7.16397e-04 2.09203e-04       52.359        2.624
Locking on root: 0.365677778118737
 12   0.365677778118737 3.69427e-04 4.13082e-04 9.91535e-05       54.343        2.724
 13   0.365592926588094 1.87950e-04 2.43062e-04 6.08015e-05       60.106        3.012
 14   0.365587321748105 8.09311e-05 1.30496e-04 3.12206e-05       59.433        2.979
 15   0.365604984004062 4.40676e-05 5.98525e-05 1.35843e-05       63.361        3.176
 16   0.365606372817342 2.59126e-05 2.75873e-05 6.16122e-06       62.738        3.144
 17   0.365602795907843 1.29858e-05 1.35057e-05 3.34475e-06       64.020        3.209
 18   0.365602295570107 8.67724e-06 6.03791e-06 1.81106e-06       69.456        3.481

EOMEE-CCSDT iterations converged in 18 cycles and 46.007 seconds (2.556 s/it.) at 24.341 Gflops/sec

EOMEE-CCSDT excitation energy:   0.365602295570113 (  9.948544236678472 eV)
Total EOMEE-CCSDT energy:      -75.976780393231238

Converged root:

   A    I                     A    I                     A    I                  
-------------------------- -------------------------- -------------------------- 
   6    4  0.5532898374645   15    5 -0.0461503358563   19    3 -0.0118342357024 
  10    4 -0.2606601198010   33    4  0.0246886308420   29    5 -0.0118235120308 
   8    4 -0.2329088639469    6    2 -0.0204328724349   26    5 -0.0117132693701 
   9    5 -0.1142141116427   10    2  0.0149235701647   35    5 -0.0112169630591 
  18    4 -0.1141792140866   25    4 -0.0118518830414   32    4  0.0107390669021 

   A    B    I    J                     A    B    I    J                  
------------------------------------ ------------------------------------ 
   8    6    4    4 -0.0486806984341    9    6    5    4  0.0372359066709 
   6    8    4    4 -0.0486806984341    6    9    4    5  0.0372359066709 
  16    6    4    4  0.0420385153258    8    8    4    4  0.0347459211070 
   6   16    4    4  0.0420385153258   15    6    5    4  0.0311917866553 
  27    6    4    4 -0.0408788504760    6   15    4    5  0.0311917866553 
   6   27    4    4 -0.0408788504760   11    6    3    4  0.0284317961751 
  19    6    3    4  0.0379289721459    6   11    4    3  0.0284317961751 
   6   19    4    3  0.0379289721459 

Searching for 1 roots in irrep 2

EOMEE-CCSD guess vector:

   A    I                  
-------------------------- 
   6    5  1.0000000000000 

Beginning iterative solution of EOMEE-CCSDT equations:

It.  Correlation Energy R1 Residual R2 Residual R3 Residual CPU Time (s) Walltime (s)
-------------------------------------------------------------------------------------
  1   0.452803176111382 3.17431e-02 6.02572e-02 2.20537e-03       32.132        1.611
  2   0.354213053880670 7.80484e-02 3.60826e-02 4.45094e-03       33.673        1.688
  3   0.303659462007742 2.19433e-02 1.17211e-02 4.98857e-03       35.659        1.787
  4   0.297474652402826 2.96974e-02 7.62145e-03 4.85491e-03       38.797        1.945
  5   0.284410144377196 8.24153e-03 9.66456e-03 2.99380e-03       39.870        1.998
  6   0.278891862907803 3.24745e-03 1.43753e-03 1.36967e-03       39.375        1.973
  7   0.279123495841610 1.98017e-03 1.01274e-03 3.97929e-04       41.172        2.063
  8   0.279165871753768 1.20824e-03 6.11187e-04 2.49365e-04       43.153        2.163
  9   0.278909621679325 5.99619e-04 3.89319e-04 1.50077e-04       47.091        2.360
Locking on root: 0.278901694783846
 10   0.278901694783846 2.66642e-04 2.33153e-04 6.21106e-05       47.887        2.400
 11   0.278959704447322 1.77713e-04 8.67573e-05 2.97112e-05       50.801        2.546
 12   0.278963206546123 8.69898e-05 4.55117e-05 1.57347e-05       51.768        2.595
 13   0.278948936324404 3.64134e-05 2.34445e-05 8.42311e-06       52.911        2.652
 14   0.278949011877941 2.12482e-05 1.27856e-05 5.10276e-06       55.802        2.797
 15   0.278952314514548 1.16719e-05 7.25019e-06 2.90192e-06       55.677        2.790
 16   0.278952038153425 5.72149e-06 3.34406e-06 1.32019e-06       57.688        2.891

EOMEE-CCSDT iterations converged in 16 cycles and 36.260 seconds (2.266 s/it.) at 26.459 Gflops/sec

EOMEE-CCSDT excitation energy:   0.278952038153420 (  7.590670860404147 eV)
Total EOMEE-CCSDT energy:      -76.063430650647931

Converged root:

   A    I                     A    I                     A    I                  
-------------------------- -------------------------- -------------------------- 
   6    5  0.5517810472744   16    5  0.0248350732072   22    5 -0.0074537972525 
   8    5 -0.2716238867578   25    5 -0.0142614054659    9    4 -0.0066412411370 
  10    5 -0.2491266850670   32    5  0.0136906454618   46    5 -0.0046157662673 
  18    5 -0.1289750346967   27    5 -0.0134874689483    9    2  0.0046149959801 
  33    5  0.0282686112724   50    5 -0.0076204620888   15    2  0.0040306335628 

   A    B    I    J                     A    B    I    J                  
------------------------------------ ------------------------------------ 
   9    6    5    5  0.0510658372729   29    6    5    5  0.0335912485009 
   6    9    5    5  0.0510658372729    6   29    5    5  0.0335912485009 
  15    6    5    5  0.0404681982090    6   16    5    4  0.0308426390677 
   6   15    5    5  0.0404681982090   16    6    4    5  0.0308426390677 
   6   19    5    3  0.0394905286848    6   27    5    4 -0.0301215809495 
  19    6    3    5  0.0394905286848   27    6    4    5 -0.0301215809495 
   6    8    5    4 -0.0352280125096    6   11    5    3  0.0296921372448 
   8    6    4    5 -0.0352280125096 

Searching for 1 roots in irrep 3

EOMEE-CCSD guess vector:

   A    I                  
-------------------------- 
   7    4  1.0000000000000 

Beginning iterative solution of EOMEE-CCSDT equations:

It.  Correlation Energy R1 Residual R2 Residual R3 Residual CPU Time (s) Walltime (s)
-------------------------------------------------------------------------------------
  1   0.580280952799591 2.90260e-02 7.36220e-02 2.79614e-03       30.400        1.524
  2   0.486905660988076 8.01209e-02 2.82673e-02 4.03579e-03       33.170        1.662
  3   0.447648502349248 2.41373e-02 7.10492e-03 4.91370e-03       35.577        1.783
  4   0.446477359025381 3.41398e-02 5.48826e-03 4.33594e-03       38.242        1.917
  5   0.436501730849535 9.21350e-03 7.85368e-03 4.14074e-03       39.935        2.002
  6   0.430076240512059 3.86343e-03 2.18802e-03 2.33757e-03       39.794        1.994
  7   0.430466365823179 3.39292e-03 2.07122e-03 6.01645e-04       43.082        2.159
  8   0.430526620390281 2.23652e-03 1.43224e-03 4.36793e-04       45.650        2.288
  9   0.430044796673683 1.38152e-03 1.09647e-03 2.44796e-04       48.177        2.415
 10   0.429921434529737 8.04928e-04 7.93434e-04 2.44076e-04       48.598        2.436
 11   0.430090071929089 5.36532e-04 4.76346e-04 1.11902e-04       49.823        2.497
Locking on root: 0.430115837131099
 12   0.430115837131099 3.50457e-04 1.84948e-04 7.19065e-05       52.856        2.649
 13   0.430056280183181 2.51439e-04 1.08240e-04 3.69006e-05       53.407        2.677
 14   0.430041880556628 1.59606e-04 6.68387e-05 2.12548e-05       56.295        2.821
 15   0.430063823885223 8.67348e-05 4.67278e-05 1.43408e-05       58.045        2.909
 16   0.430068033552658 3.80759e-05 2.47563e-05 9.45632e-06       63.834        3.199
 17   0.430059780523321 1.34966e-05 1.27395e-05 5.74627e-06       63.607        3.188
 18   0.430059034973552 1.02838e-05 7.05969e-06 2.52291e-06       65.392        3.277
 19   0.430060196361156 8.03070e-06 3.70526e-06 1.02831e-06       76.238        3.821

EOMEE-CCSDT iterations converged in 19 cycles and 47.219 seconds (2.485 s/it.) at 24.920 Gflops/sec

EOMEE-CCSDT excitation energy:   0.430060196361154 ( 11.702532888262649 eV)
Total EOMEE-CCSDT energy:      -75.912322492440197

Converged root:

   A    I                     A    I                     A    I                  
-------------------------- -------------------------- -------------------------- 
   7    4  0.5673806260079   34    4  0.0251517416013   17    4  0.0132350769189 
  11    4  0.3192983086162    7    2 -0.0175419155738   39    4  0.0112200768989 
  12    4  0.1347669793300   31    4  0.0154146463278   28    4  0.0100272970545 
  19    4  0.1153619202048   23    5 -0.0149117682852   21    3  0.0093002294741 
  14    5 -0.0396001092552   20    4  0.0143855801875   11    2 -0.0079043105088 

   A    B    I    J                     A    B    I    J                  
------------------------------------ ------------------------------------ 
   7    8    4    4 -0.0437651255585   19    7    3    4  0.0395201738336 
   8    7    4    4 -0.0437651255585    7   19    4    3  0.0395201738336 
   9    7    5    4  0.0425112558692   15    7    5    4  0.0334438109421 
   7    9    4    5  0.0425112558692    7   15    4    5  0.0334438109421 
   7   27    4    4 -0.0421654199031   11    7    3    4  0.0314588342507 
  27    7    4    4 -0.0421654199031    7   11    4    3  0.0314588342507 
   7   16    4    4  0.0419028312288    7   18    4    4 -0.0275942619167 
  16    7    4    4  0.0419028312288 

Searching for 1 roots in irrep 4

EOMEE-CCSD guess vector:

   A    I                  
-------------------------- 
   7    5  1.0000000000000 

Beginning iterative solution of EOMEE-CCSDT equations:

It.  Correlation Energy R1 Residual R2 Residual R3 Residual CPU Time (s) Walltime (s)
-------------------------------------------------------------------------------------
  1   0.503460432050113 2.93736e-02 6.05607e-02 2.19547e-03       30.551        1.531
  2   0.405651656586578 7.94406e-02 3.61826e-02 4.55802e-03       31.913        1.599
  3   0.364562516200378 2.43170e-02 1.04976e-02 5.02809e-03       33.733        1.691
  4   0.363257572538936 3.54314e-02 7.56824e-03 3.91067e-03       37.561        1.882
  5   0.352257922787163 1.03704e-02 1.10278e-02 3.42995e-03       37.752        1.892
  6   0.344565869689233 5.53054e-03 2.20178e-03 1.89850e-03       39.461        1.978
  7   0.344928075947490 4.81965e-03 1.62196e-03 5.60063e-04       41.009        2.055
  8   0.344872110647917 3.03072e-03 1.34330e-03 4.12868e-04       42.784        2.144
  9   0.344152994979316 1.63374e-03 9.65988e-04 3.08779e-04       45.536        2.282
Locking on root: 0.344127548486990
 10   0.344127548486990 8.59328e-04 7.18402e-04 1.83429e-04       45.817        2.296
 11   0.344294815025006 3.72453e-04 2.54258e-04 8.09455e-05       48.058        2.409
 12   0.344290632891465 1.51848e-04 8.12500e-05 3.49935e-05       51.659        2.589
 13   0.344249066746663 5.34738e-05 3.57910e-05 1.59648e-05       55.125        2.763
 14   0.344249777529764 1.72660e-05 1.20669e-05 4.72758e-06       54.260        2.719
 15   0.344256459317848 5.00423e-06 3.92074e-06 2.63063e-06       55.153        2.764

EOMEE-CCSDT iterations converged in 15 cycles and 32.597 seconds (2.173 s/it.) at 27.363 Gflops/sec

EOMEE-CCSDT excitation energy:   0.344256459317847 (  9.367694502424449 eV)
Total EOMEE-CCSDT energy:      -75.998126229483503

Converged root:

   A    I                     A    I                     A    I                  
-------------------------- -------------------------- -------------------------- 
   7    5  0.5499267363451   34    5  0.0324271029113   39    5  0.0080847269287 
  11    5  0.3246434214689   31    5  0.0165143259579   14    2  0.0061415794075 
  12    5  0.1741243981001   17    5  0.0088930575155   36    5  0.0058797589241 
  19    5  0.1349716145107   45    5  0.0082227252056   52    5  0.0035862679145 
  20    5  0.0359682028314   28    5  0.0081320197921   54    5  0.0034044391646 

   A    B    I    J                     A    B    I    J                  
------------------------------------ ------------------------------------ 
   7    9    5    5  0.0506740568727    7   29    5    5  0.0341183658510 
   9    7    5    5  0.0506740568727   29    7    5    5  0.0341183658510 
  19    7    3    5  0.0397967765068   11    7    3    5  0.0318434608522 
   7   19    5    3  0.0397967765068    7   11    5    3  0.0318434608522 
   7   15    5    5  0.0386450041523   16    7    4    5  0.0309749369097 
  15    7    5    5  0.0386450041523    7   16    5    4  0.0309749369097 
   7    8    5    4 -0.0355757630381    7   27    5    4 -0.0309423152017 
   8    7    4    5 -0.0355757630381 

 @CHECKOUT-I, Total execution time (CPU/WALL):     3486.46/     177.47 seconds.
--executable xncc finished with status     0 in      178.27 seconds (walltime).
  The final electronic energy is       -75.998126229483503 a.u. 
  This computation required                          189.03 seconds (walltime).
