 **********************************************************************
                          MRCC program system
 **********************************************************************
 
                              Written by
  Mihaly Kallay, Zoltan Rolik, Jozsef Csontos, Peter Nagy, Gyula Samu,
     David Mester, Jozsef Csoka, Istvan Ladjanszki, Lorant Szegedy,
      Bence Ladoczki, Klara Petrov, Mate Farkas, and Bence Hegely
 
        Department of Physical Chemistry and Materials Science
            Budapest University of Technology and Economics
                  Budapest P.O.Box 91, H-1521 Hungary
 
                              www.mrcc.hu
 
                      Release date: Sept 25, 2017

 ************************ 2018-02-09 23:50:18 *************************
 Executing minp...

 Reading input from MINP...
 
 Input file:
 
# Test Ethylene / Small basis
basis=aug-cc-pVDZ
dfbasis_scf=none
dfbasis_cor=none
mem=70000MB

mult=1
charge=0 

calc=CCSDTQP

nsing=2
ntrip=1
symm=A2

unit=bohr
geom=xyz
3

O    0.0000000000            0.0000000000           -0.1320966888
H    0.0000000000            1.4315287786            0.9797000618
H    0.0000000000           -1.4315287786            0.9797000618



 
 
 Checking keyword combinations...
 
 Keywords:
 
 active=none
 agrid=ld0006-ld0590
 basis=aug-cc-pvdz
 basopt=off
 bpcompo=0.985
 bpcompv=0.98
 bpdfo=0.985
 bpocc=0.985
 bppdo=0.985
 bppdv=0.98
 bpedo=0.985
 bpedv=0.98
 calc=ccsdtqp
 ccmaxit=50
 ccprog=mrcc
 cctol=6
 charge=0
 cialg=disk
 ciguess=off
 cmpgrp=auto
 core=frozen
 corembed=off
 dboc=off
 dendec=cholesky
 dens=0
 dfalg=invsqrt
 dfbasis_cor=none
 dfbasis_scf=none
 dfintran=ovirt
 dft=off
 diag=david
 domrad=10.d0
 drpaalg=fit
 ecp=auto
 edisp=off
 embed=off
 epert=none
 eps=0.975
 excrad=0.d0
 excrad_fin=0.000000000D+00
 freq=off
 gauss=spher
 geom=xyz
 gopt=off
 ghost=none
 gtol=7
 grdens=off
 grtol=10
 hamilton=dc
 iface=none
 intalg=auto
 itol=10
 laptol=1.d-2
 lcorthr=loose
 lccrest=off
 lmp2dens=on
 lnoepso=3e-5
 lnoepsv=1e-6
 localcc=off
 locintrf=disk
 maxact=off
 maxex=0
 bfbasis=none
 mem=70000mb
 molden=on
 mulmet=0
 mult=1
 nacto=0
 nactv=0
 naf_cor=off
 naf_scf=off
 nafalg=albe
 naftyp=
 nchol=auto
 ndeps=1e-3
 nstate=0
 nsing=2
 ntrip=1
 occ=
 optalg=
 optmaxit=50
 optetol=1e-6
 optgtol=1e-4
 optstol=1e-3
 orblocc=off
 orbloco=off
 orblocv=off
 osveps=1e-3
 ovirt=off
 ovosnorb=80.0
 ptfreq=0.0
 popul=off
 pressure=100000
 qscf=off
 qmmm=off
 refdet=none
 rest=0
 rgrid=log3
 rohftype=standard
 scfalg=auto
 scfdamp=off
 scfdiis=on
 scfdiis_end=50
 scfdiis_start=1
 scfdiis_step=1
 scfdtol=8
 scfext=10
 scfiguess=sad
 scflshift=off
 scfmaxit=50
 scftype=
 scftol=6
 scspe=1.d0
 scsps=1.2d0
 scspt=0.33333333333333
 scspv=1.d0
 spairtol=1e-4
 symm=a2
 talg=occ
 temp=298.15
 test=off
 tprint=off
 uncontract=off
 unit=bohr
 verbosity=2
 wpairtol=0.100000000E-05

 ************************ 2018-02-09 23:50:21 *************************
 Executing integ...

 Allocation of 68.4 Gbytes of memory...
 
 
 Number of atoms:              3
 Charge:                       0
 Number of electrons:         10
 Number of core electrons:     2
 Spin multiplicity:            1
 
                 Cartesian coordinates [bohr]      Atomic mass [AMU]  Z
   1  O     0.00000000    0.00000000   -0.13209669    15.994915       8
   2  H     0.00000000    1.43152878    0.97970006     1.007825       1
   3  H     0.00000000   -1.43152878    0.97970006     1.007825       1
 
 This molecule is an asymmetric top.
 This molecule is planar.
 
 Rotational constants [cm-1]: 
     27.206563975843     14.574005445203      9.490263465137
 
 Point group: C2v 
 Computational point group: C2v 
 
 Cartesian coordinates in standard orientation [bohr]
   1  O     0.00000000    0.00000000   -0.12442659
   2  H     0.00000000    1.43152878    0.98737016
   3  H     0.00000000   -1.43152878    0.98737016
 
 Nuclear repulsion energy [au]:          9.176580470692
 
 
 Basis set information:
 
 Maximum angular momentum: d
 Maximum number of contracted Gaussians:    4
 Maximum number of primitive Gaussians:    10
 Spherical harmonic GTOs are used.
 
    1  O  aug-cc-pvdz [ 10s 5p 2d | 4s 3p 2d ]
    2  H  aug-cc-pvdz [ 5s 2p | 3s 2p ]
    3  H  aug-cc-pvdz [ 5s 2p | 3s 2p ]
 
 Total number of basis functions:    41
 
 
 Generating initial guess for the SCF calculation...
 CPU time [min]:     0.003                   Wall time [min]:     0.170
 
 Character table for point group C2v:
 
          E  C2  Qh  Qv  
    A1    1   1   1   1
    B1    1  -1   1  -1
    B2    1  -1  -1   1
    A2    1   1  -1  -1
 
 Number of basis functions per irrep:
    A1     18
    B1     12
    B2      7
    A2      4
 
 
 Calculation of overlap integrals...
 CPU time [min]:     0.004                   Wall time [min]:     0.172
 Calculation of kinetic energy integrals...
 CPU time [min]:     0.005                   Wall time [min]:     0.172
 Calculation of dipole moment integrals...
 CPU time [min]:     0.010                   Wall time [min]:     0.172
 Calculation of second moment integrals...
 CPU time [min]:     0.014                   Wall time [min]:     0.172
 Calculation of third moment integrals...
 CPU time [min]:     0.020                   Wall time [min]:     0.173
 Calculation of linear momentum integrals...
 CPU time [min]:     0.021                   Wall time [min]:     0.173
 Calculation of angular momentum integrals...
 CPU time [min]:     0.024                   Wall time [min]:     0.173
 Calculation of nuclear attraction integrals...
 CPU time [min]:     0.025                   Wall time [min]:     0.173
 
 Calculation of prescreening integrals...
 CPU time [min]:     0.030                   Wall time [min]:     0.173
 
 Calculation of the square root of the overlap matrix...
 CPU time [min]:     0.032                   Wall time [min]:     0.174
 
 Calculation of two-electron integrals...
   1% done.
  17% done.
  38% done.
  54% done.
 100% done.
 CPU time [min]:     0.077                   Wall time [min]:     0.176

 ************************ 2018-02-09 23:50:32 *************************
 Executing scf...

 Allocation of 68.4 Gbytes of memory...
 ======================================================================
 ITERATION STEP   1
 CPU time [min]:     0.013                   Wall time [min]:     0.004
 
 ALPHA OCC:   3   1   1   0
 BETA  OCC:   3   1   1   0
 ***HARTREE-FOCK ENERGY IN STEP   1 IS     -75.7435831797702974 [AU]
 ======================================================================
 ITERATION STEP   2
 CPU time [min]:     0.025                   Wall time [min]:     0.005
 
 ALPHA OCC:   3   1   1   0
 BETA  OCC:   3   1   1   0
 ***HARTREE-FOCK ENERGY IN STEP   2 IS     -76.0300629627040507 [AU]
 ======================================================================
 ITERATION STEP   3
 CPU time [min]:     0.037                   Wall time [min]:     0.006
 
 ALPHA OCC:   3   1   1   0
 BETA  OCC:   3   1   1   0
 ***HARTREE-FOCK ENERGY IN STEP   3 IS     -76.0396573836665084 [AU]
 ======================================================================
 ITERATION STEP   4
 CPU time [min]:     0.055                   Wall time [min]:     0.007
 
 ALPHA OCC:   3   1   1   0
 BETA  OCC:   3   1   1   0
 ***HARTREE-FOCK ENERGY IN STEP   4 IS     -76.0410661112725279 [AU]
 ======================================================================
 ITERATION STEP   5
 CPU time [min]:     0.067                   Wall time [min]:     0.007
 
 ALPHA OCC:   3   1   1   0
 BETA  OCC:   3   1   1   0
 ***HARTREE-FOCK ENERGY IN STEP   5 IS     -76.0412900966000223 [AU]
 ======================================================================
 ITERATION STEP   6
 CPU time [min]:     0.082                   Wall time [min]:     0.008
 
 ALPHA OCC:   3   1   1   0
 BETA  OCC:   3   1   1   0
 ***HARTREE-FOCK ENERGY IN STEP   6 IS     -76.0413016329638936 [AU]
 ======================================================================
 ITERATION STEP   7
 CPU time [min]:     0.097                   Wall time [min]:     0.009
 
 ALPHA OCC:   3   1   1   0
 BETA  OCC:   3   1   1   0
 ***HARTREE-FOCK ENERGY IN STEP   7 IS     -76.0413020001062421 [AU]
 ======================================================================
 ITERATION STEP   8
 CPU time [min]:     0.112                   Wall time [min]:     0.010
 
 ALPHA OCC:   3   1   1   0
 BETA  OCC:   3   1   1   0
 ***HARTREE-FOCK ENERGY IN STEP   8 IS     -76.0413020290665145 [AU]
 ======================================================================
 ITERATION STEP   9
 CPU time [min]:     0.127                   Wall time [min]:     0.010
 
 ALPHA OCC:   3   1   1   0
 BETA  OCC:   3   1   1   0
 ***HARTREE-FOCK ENERGY IN STEP   9 IS     -76.0413020296374356 [AU]
 ======================================================================
 
 SUCCESS...
 THE SCF ITERATION HAS CONVERGED!
 
                   A1  B1  B2  A2  
 FINAL ALPHA OCC:   3   1   1   0
 FINAL BETA  OCC:   3   1   1   0
 
 ***FINAL HARTREE-FOCK ENERGY:    -76.0413020296374356 [AU]
 
 RETURNING FROM SCF ALGORITHM
 ======================================================================

 ************************ 2018-02-09 23:50:34 *************************
 Executing ovirt...

 ovirt, the routine of orbital optimization and integral transformation 
Fri Feb  9 23:50:35 CET 2018
 Allocated memory:                   70000  Mb
 RHF calculation! 
 integral transforamtion: AOs ------ MOs
 # of basis functions, # of int. blocks    41     1
100 % 
 second part
100 %
 integral transformation is completed! 
CPU and WC time           7.64           0.68     AOs -> MOs 
Integrals are written to fort.55
Fri Feb  9 23:50:36 CET 2018
  ovirt terminated normally 

 ************************ 2018-02-09 23:50:36 *************************
 Executing goldstone...

 Generation of CC equations in terms of H and T...
 Generation of antisymmetrized Goldstone diagrams...
 Number of diagrams in T^1 equations:    15
 Number of diagrams in T^2 equations:    38
 Number of diagrams in T^3 equations:    54
 Number of diagrams in T^4 equations:    80
 Number of diagrams in T^5 equations:    99
 Translation of diagrams to factorized equations...
 Optimizing intermediate calculation...
 Optimizing right-hand EOMCC calculation...
 Number of floating-point operations per iteration step:   3.8329E+12
 Probable CPU time per iteration step (hours):     38.33
 Required memory (Mbytes):    4703.3
 Number of intermediates:                                 344
 Number of intermediates to be stored:                    132
 Length of intermediate file (Mbytes):    7274.3

 ************************ 2018-02-09 23:50:40 *************************
 Executing xmrcc...

 **********************************************************************
 CC(                     5 ) calculation 
 
 
 Allocation of4703.3 Mbytes of memory...
 Number of spinorbitals:                    80
 Number of alpha electrons:                        4
 Number of beta electrons:                         4
 z-component of spin:  0.0
 Spatial symmetry:                      4
 Convergence criterion:  1.0E-06
 Spatial symmetry of ground state:                      1
 Construction of occupation graphs...
 Number of                     0 -fold excitations:                      0
 Number of                     1 -fold excitations:                     50
 Number of                     2 -fold excitations:                   6798
 Number of                     3 -fold excitations:                 286770
 Number of                     4 -fold excitations:                5670428
 Number of                     5 -fold excitations:               58229570
 Total number of configurations:               64193616
 Number of ground state excitations: 
 Number of                     0 -fold excitations:                      1
 Number of                     1 -fold excitations:                     94
 Number of                     2 -fold excitations:                   7382
 Number of                     3 -fold excitations:                 286110
 Number of                     4 -fold excitations:                5645948
 Number of                     5 -fold excitations:               58209550
 Total number of configurations:               64149085
 Calculation of coupling coefficients...
 Length of intermediate file (Mbytes):    4353.9
 
 ======================================================================
 
 ======================================================================
 
 ======================================================================
 
 Memory requirements /Mbyte/: 
               Minimal        Optimal
 Real*8:      13287.3993     13287.3993
 Integer:        20.8880
 Total:       13308.2873     13308.2873
 

 ************************ 2018-02-09 23:50:43 *************************
 Executing mrcc...

 **********************************************************************
 LR-CCSDTQP calculation                                                 
 
 
 OpenMP parallel version is running.
 Number of CPUs:  20
 Allocation of13287.4 Mbytes of memory...
 Number of spinorbitals:  80
 Number of alpha electrons:  4
 Number of beta  electrons:  4
 z-component of spin:  0.0
 Spatial symmetry: 4
 Convergence criterion:  1.0E-06
 Spatial symmetry of ground state:                      1
 Construction of occupation graphs...
 Number of excitations for irrep 1: 
 Number of 0-fold excitations: 1
 Number of 1-fold excitations: 94
 Number of 2-fold excitations: 7382
 Number of 3-fold excitations: 286110
 Number of 4-fold excitations: 5645948
 Number of 5-fold excitations: 58209550
 Total number of determinants: 64149085
 Number of excitations for irrep 4: 
 Number of 0-fold excitations: 0
 Number of 1-fold excitations: 50
 Number of 2-fold excitations: 6798
 Number of 3-fold excitations: 286770
 Number of 4-fold excitations: 5670428
 Number of 5-fold excitations: 58229570
 Total number of determinants: 64193616
 Calculation of coupling coefficients...
 Initial cluster amplitudes are generated.
 Length of intermediate file (Mbytes):    4353.9
 Reading integral list from unit 55...
 Sorting integrals...
 Energy of reference determinant [au]:     -76.041302029649
 Calculation of diagonal elements of Hamiltonian...
 Calculation of MP denominators...
 
 Starting CC iteration...
 ======================================================================
 Norm of residual vector:     0.99058306
 CPU time [min]:  1889.210                   Wall time [min]:   105.588
 
 Iteration  1  CC energy:   -76.26082338  Energy decrease:   0.21952135
 ======================================================================
 Norm of residual vector:     0.21213427
 CPU time [min]:  3679.213                   Wall time [min]:   205.392
 
 Iteration  2  CC energy:   -76.26284873  Energy decrease:   0.00202535
 ======================================================================
 Norm of residual vector:     0.07193915
 CPU time [min]:  5504.442                   Wall time [min]:   307.671
 
 Iteration  3  CC energy:   -76.27213243  Energy decrease:   0.00928370
 ======================================================================
 Norm of residual vector:     0.02670507
 CPU time [min]:  7170.400                   Wall time [min]:   402.208
 
 Iteration  4  CC energy:   -76.27474511  Energy decrease:   0.00261268
 ======================================================================
 Norm of residual vector:     0.00958057
 CPU time [min]:  9932.347                   Wall time [min]:   554.621
 
 Iteration  5  CC energy:   -76.27457619  Energy decrease:   0.00016892
 ======================================================================
 Norm of residual vector:     0.00418938
 CPU time [min]: 12229.572                   Wall time [min]:   681.918
 
 Iteration  6  CC energy:   -76.27447784  Energy decrease:   0.00009835
 ======================================================================
 Norm of residual vector:     0.00141713
 CPU time [min]: 14217.637                   Wall time [min]:   793.266
 
 Iteration  7  CC energy:   -76.27450529  Energy decrease:   0.00002744
 ======================================================================
 Norm of residual vector:     0.00059792
 CPU time [min]: 15979.131                   Wall time [min]:   891.929
 
 Iteration  8  CC energy:   -76.27450935  Energy decrease:   0.00000407
 ======================================================================
 Norm of residual vector:     0.00021388
 CPU time [min]: 18430.867                   Wall time [min]:  1026.977
 
 Iteration  9  CC energy:   -76.27450536  Energy decrease:   0.00000399
 ======================================================================
 Norm of residual vector:     0.00009341
 CPU time [min]: 20659.318                   Wall time [min]:  2567.402
 
 Iteration 10  CC energy:   -76.27450525  Energy decrease:   0.00000011
 ======================================================================
 Norm of residual vector:     0.00003581
 CPU time [min]: 22598.326                   Wall time [min]:  2675.704
 
 Iteration 11  CC energy:   -76.27450598  Energy decrease:   0.00000074
 ======================================================================
 Norm of residual vector:     0.00001649
 CPU time [min]: 24130.330                   Wall time [min]:  2762.790
 
 Iteration 12  CC energy:   -76.27450607  Energy decrease:   0.00000008
 ======================================================================
 Norm of residual vector:     0.00000640
 CPU time [min]: 26367.574                   Wall time [min]:  2886.745
 
 Iteration 13  CC energy:   -76.27450597  Energy decrease:   0.00000010
 ======================================================================
 Norm of residual vector:     0.00000298
 CPU time [min]: 28201.636                   Wall time [min]:  2989.655
 
 Iteration 14  CC energy:   -76.27450595  Energy decrease:   0.00000002
 ======================================================================
 Norm of residual vector:     0.00000111
 CPU time [min]: 30398.264                   Wall time [min]:  3111.704
 
 Iteration 15  CC energy:   -76.27450596  Energy decrease:   0.00000001
 ======================================================================
 Norm of residual vector:     0.00000052
 CPU time [min]: 32863.807                   Wall time [min]:  3246.408
 
 Iteration 16  CC energy:   -76.27450596  Energy decrease:   0.00000001
 ======================================================================
 
 Iteration has converged in 16 steps.
 
 Final results:
 Total CCSDTQP energy [au]:          -76.274505964084
 Total MP2 energy [au]:              -76.260823382820
 Spin multiplicity:                     1
 
 
 
 Starting right-hand LR-CC iteration for root                      2 ...
 ======================================================================
 Norm of residual vector:     0.45965679      Convergence:   1.00000000
 CPU time [min]: 37314.925                   Wall time [min]:  3488.247
 
 Iteration  1  CI energy:   -75.78596005  Energy decrease:   0.48854591
 ======================================================================
 Norm of residual vector:     0.39492532      Convergence:   0.49995119
 CPU time [min]: 40888.630                   Wall time [min]:  3685.083
 
 Iteration  2  CI energy:   -75.84600852  Energy decrease:   0.06004847
 ======================================================================
 Norm of residual vector:     0.19335244      Convergence:   0.26923482
 CPU time [min]: 47281.989                   Wall time [min]:  4052.621
 
 Iteration  3  CI energy:   -75.93006344  Energy decrease:   0.08405492
 ======================================================================
 Norm of residual vector:     0.09620858      Convergence:   0.10507983
 CPU time [min]: 53344.699                   Wall time [min]:  4381.848
 
 Iteration  4  CI energy:   -75.93693546  Energy decrease:   0.00687202
 ======================================================================
 Norm of residual vector:     0.05252164      Convergence:   0.04388439
 CPU time [min]: 60304.353                   Wall time [min]:  4758.361
 
 Iteration  5  CI energy:   -75.93237262  Energy decrease:   0.00456285
 ======================================================================
 Norm of residual vector:     0.02394951      Convergence:   0.01828935
 CPU time [min]: 67256.317                   Wall time [min]:  5853.314
 
 Iteration  6  CI energy:   -75.93196686  Energy decrease:   0.00040575
 ======================================================================
 Norm of residual vector:     0.01018438      Convergence:   0.00719364
 CPU time [min]: 73557.488                   Wall time [min]:  6195.661
 
 Iteration  7  CI energy:   -75.93211739  Energy decrease:   0.00015053
 ======================================================================
 Norm of residual vector:     0.00424183      Convergence:   0.00268211
 CPU time [min]: 79970.719                   Wall time [min]:  6547.047
 
 Iteration  8  CI energy:   -75.93207208  Energy decrease:   0.00004531
 ======================================================================
 Norm of residual vector:     0.00183644      Convergence:   0.00107072
 CPU time [min]: 85793.454                   Wall time [min]:  8212.609
 
 Iteration  9  CI energy:   -75.93209429  Energy decrease:   0.00002221
 ======================================================================
 Norm of residual vector:     0.00084738      Convergence:   0.00051265
 CPU time [min]: 92799.043                   Wall time [min]:  8910.873
 
 Iteration 10  CI energy:   -75.93209817  Energy decrease:   0.00000388
 ======================================================================
 Norm of residual vector:     0.00038730      Convergence:   0.00023513
 CPU time [min]: 96868.117                   Wall time [min]:  9137.387
 
 Iteration 11  CI energy:   -75.93209111  Energy decrease:   0.00000706
 ======================================================================
 Norm of residual vector:     0.00017627      Convergence:   0.00011083
 CPU time [min]:103361.830                   Wall time [min]: 10352.256
 
 Iteration 12  CI energy:   -75.93209068  Energy decrease:   0.00000044
 ======================================================================
 Norm of residual vector:     0.00008398      Convergence:   0.00005012
 CPU time [min]:114007.454                   Wall time [min]: 10928.664
 
 Iteration 13  CI energy:   -75.93209085  Energy decrease:   0.00000017
 ======================================================================
 Norm of residual vector:     0.00003889      Convergence:   0.00002354
 CPU time [min]:123328.417                   Wall time [min]: 11432.532
 
 Iteration 14  CI energy:   -75.93209012  Energy decrease:   0.00000073
 ======================================================================
 Complex root in matrix diagonalization.
 Norm of residual vector:     0.00001622      Convergence:   0.00001003
 CPU time [min]:132161.390                   Wall time [min]: 11909.183
 
 Iteration 15  CI energy:   -75.93208988  Energy decrease:   0.00000024
 ======================================================================
 Norm of residual vector:     0.00000663      Convergence:   0.00000431
 CPU time [min]:143191.748                   Wall time [min]: 12503.731
 
 Iteration 16  CI energy:   -75.93209004  Energy decrease:   0.00000015
 ======================================================================
 Complex root in matrix diagonalization.
 Norm of residual vector:     0.41912883      Convergence:   0.24130109
 CPU time [min]:156202.446                   Wall time [min]: 13203.759
 
 Iteration 17  CI energy:   -75.89653980  Energy decrease:   0.03555024
 ======================================================================
 Norm of residual vector:     0.0000E+00      Convergence:   2.2428E-06
 CPU time [min]:168391.382                   Wall time [min]: 13969.209
 
 Iteration 18  CI energy:   -75.93208984  Energy decrease:   0.03555004
 ======================================================================
 
 Iteration has converged in 18 steps.
 
 Final results:
 Total LR-CCSDTQP energy [au]:       -75.932089835081
 Excitation energy [eV]:           9.3176
 Excitation energy [cm^-1]:    75151.66
 Absorption wavelength [nm]:     133.06
 Spin multiplicity:                     1
 
 
 
 Starting right-hand LR-CC iteration for root                      3 ...
 ======================================================================
 Norm of residual vector:     0.45953907      Convergence:   1.00000000
 CPU time [min]:181534.981                   Wall time [min]: 15204.024
 
 Iteration  1  CI energy:   -75.78688429  Energy decrease:   0.48762168
 ======================================================================
 Norm of residual vector:     0.39334815      Convergence:   0.52304392
 CPU time [min]:191023.528                   Wall time [min]: 16738.457
 
 Iteration  2  CI energy:   -75.85203603  Energy decrease:   0.06515175
 ======================================================================
