 --invoking executable--
/home/CEISAM/blondel-a/soft/cfour2.1/cfour2.1-serial-mkl/bin/xjoda


   *************************************************************************
         <<<     CCCCCC     CCCCCC   |||     CCCCCC     CCCCCC   >>>
       <<<      CCC        CCC       |||    CCC        CCC         >>>
      <<<      CCC        CCC        |||   CCC        CCC            >>>
    <<<        CCC        CCC        |||   CCC        CCC              >>>
      <<<      CCC        CCC        |||   CCC        CCC            >>>
       <<<      CCC        CCC       |||    CCC        CCC         >>>
         <<<     CCCCCC     CCCCCC   |||     CCCCCC     CCCCCC   >>>
   *************************************************************************

     ****************************************************************
     * CFOUR Coupled-Cluster techniques for Computational Chemistry *
     ****************************************************************
 

   Department of Chemistry                Institut fuer Physikalische Chemie
   University of Florida                  Universitaet Mainz
   Gainesville, FL 32611, USA             D-55099 Mainz, Germany

   Department of Chemistry                Fakultaet fuer Chemie und Biowiss.
   Johns Hopkins University               Karlsruher Institut fuer Technologie
   Baltimore, MD 21218, USA               D-76131 Karlsruhe, Germany

   Department of Chemistry                Department of Physical Chemistry
   Southern Methodist University          Eotvos Lorand University
   Dallas, TX 75275, USA                  H-1053 Budapest, Hungary

 
                       Version 2.1
 
                     nazare097                                         
                     Mon May  3 07:49:22 CEST 2021                     
                     integer*8 version is running
 
********************************************************************************
*                          Input from ZMAT file                                *
********************************************************************************
Ketene -GS                                                                      
O    0.0000000000            0.0000000000           -0.1320966888               
H    0.0000000000            1.4315287786            0.9797000618               
H    0.0000000000           -1.4315287786            0.9797000618               
                                                                                
*CFOUR(COORD=CARTESIAN,UNITS=BOHR                                               
       MEMORY=110,MEM_UNIT=GB,CC_PROG=ECC                                       
       FROZEN_CORE=1                                                            
       CALC=CC2,BASIS=AUG-PVDZ                                                  
       SCF_CONV=8,CC_CONV=7,ESTATE_CONV=5,ESTATE_MAXCYC=120                     
       EXCITE=EOMEE,ESTATE_SYM=1/1/1/1)                                         
                                                                                
********************************************************************************
    -------------------------------------------------------------------
                    CFOUR Control Parameters 
    -------------------------------------------------------------------
        External           Internal           Value            Units
          Name               Name
    -------------------------------------------------------------------
       ABCDTYPE             IABCDT         STANDARD    [  0]    ***   
       ANHARMONIC           IANHAR         OFF         [  0]    ***   
       ANH_ALGORIT          IANALG         STANDARD    [  0]    ***   
       ANH_DERIVAT          IANDER         SECOND      [  1]    ***   
       ANH_MODE             ANHMOD         VIBRATION   [  0]    ***   
       ANH_STEPSIZ          ICUBST             50000          x 10-6  
       ANH_SYMMETR          IANHSM         ABELIAN     [  0]    ***   
       AO_LADDERS           IAOLAD         SINGLEPASS  [  1]    ***   
       AV_SCF               IAVSCF         OFF         [  0]    ***   
       BASIS                IBASIS         AUG-PVDZ    [ 33]    ***   
       BOTHVECTORS          BOTHVC         OFF         [  0]    ***   
       BOX_POTENT           IPIAB          OFF         [  0]    ***   
       BREIT                IBREIT         OFF         [  0]    ***   
       BRUCK_CONV           IBRTOL          10D-  4             ***   
       BRUECKNER            IBRKNR         OFF         [  0]    ***   
       BUFFERSIZE           IBUFFS              4096            ***   
       CACHE_RECS           ICHREC             10               ***   
       CALCLEVEL            ICLLVL         CC2         [ 31]    ***   
       CCORBOPT             ICCORB         OFF         [  0]  x 0.01  
       CC_CONV              ICCCNV          10D-  7             ***   
       CC_EXPORDER          ICCEOR              5               ***   
       CC_EXTRAPOL          ICCEXT         DIIS        [  1]    ***   
       CC_GUESS             ICCGES         MP2         [  0]    ***   
       CC_MAXCYC            ICCCYC            100              cycles 
       CC_PROGRAM           ICCPRO         VCC         [  0]    ***   
       CHARGE               ICHRGE              0               ***   
       CHOLESKY             ICHOLE         OFF         [  0]    ***   
       CIS_CONV             ICISTL              5               ***   
       COMM_SIZE            IPSIZE            ***               ***   
       CONSTANT             ICONST         OLD         [  1]    ***   
       CONTINUUM            ICONTU         NONE        [  0]    ***   
       CONTRACTION          ICNTYP         GENERAL     [  1]    ***   
       COORDINATES          ICOORD         CARTESIAN   [  1]    ***   
       CPHF_CONVER          ICPHFT          10D- 16             ***   
       CPHF_MAXCYC          ICPHFC             64              cycles 
       CUBIC                ICUBIC         OFF         [  0]    ***   
       CURVILINEAR          ICURVY         OFF         [  0]    ***   
       DBOC                 IDBOC          OFF         [  0]    ***   
       DCT                  IDCT           OFF         [  0]    ***   
       DERIV_LEV            IDRLVL         ZERO        [  0]    ***   
       DEVMEM_SIZE          IDVMEM         *********           MByte  
       DIAG_MRCC            IEOMST          10D-  0             ***   
       DIFF_TYPE            IDIFTY         RELAXED     [  0]    ***   
       DIRECT               IDIRCT         OFF         [  0]    ***   
       DROPMO               IDRPMO      NONE         
       ECP                  IECP           OFF         [  0]    ***   
       EIGENVECTOR          IVEC                1               ***   
       EL_ANHARM            IELANH         OFF         [  0]    ***   
       EOMFOLLOW            IEOMSR         ENERGY      [  0]    ***   
       EOMIP                IEOMIP         OFF         [  0]    ***   
       EOMLEVEL             HBARFM         SAME        [  0]    ***   
       EOM_MRCC             IMRCCE         NEW         [  1]    ***   
       EOM_NONIT            EOMNON         OFF         [  0]    ***   
       EOM_NSING            IEOMSI          10D-  0             ***   
       EOM_NSTATES          IMRCCD         DAVIDSON    [  0]    ***   
       EOM_NTRIP            IEOMTR          10D-  0             ***   
       EOM_ORDER            IEXORD         ENERGY      [  0]    ***   
       EOM_PROPSTA          IEOMST              0               ***   
       ESTATE_CONV          IEXTOL          10D-  5             ***   
       ESTATE_DIAG          IEXDIG         ITERATIVE   [  0]    ***   
       ESTATE_LOCK          IESLOC         ON          [  1]    ***   
       ESTATE_MAXC          IEXMXC            120               ***   
       ESTATE_PROP          IEXPRP         OFF         [  0]    ***   
       ESTATE_SYM           IEXSYM   1,  1,  1,  1,
       EVAL_HESS            IRECAL              0            # of cyc.
       EXCITATION           IEXCIT              0               ***   
       EXCITE               IEXCIT         EOMEE       [  3]    ***   
       EXTERN_POT           IEXPOT         OFF         [  0]    ***   
       FCGRADNEW            IFCGNW         OFF         [  0]    ***   
       FC_FIELD             IFINFC              0             x 10-6  
       FD_CALTYPE           IFDCAL         GRADONLY    [  0]    ***   
       FD_PROJECT           IFDPRJ         OFF         [  1]    ***   
       FD_STEPSIZE          IDISFD              0            10-4 bohr
       FD_USEGROUP          IFDGRP         FULL        [  0]    ***   
       FILE_RECSIZ          IFLREC              4096           words  
       FINITE_PERT          IFIPER              0             x 10-6  
       FIXGEOM              IFIXGM         OFF         [  0]    ***   
       FOCK                 IFOCK          AO          [  1]    ***   
       FREQ_ALGORI          IVIALG         STANDARD    [  0]    ***   
       FROZEN_CORE          IFROCO         ON          [  1]    ***   
       GAMMA_ABCD           IGABCD         STORE       [  0]    ***   
       GAMMA_ABCI           IGABCI         STORE       [  0]    ***   
       GENBAS_1             IGNBS1              0               ***   
       GENBAS_2             IGNBS2              0               ***   
       GENBAS_3             IGNBS3              0               ***   
       GENBAS_4             IGNBS4              0               ***   
       GEO_CONV             ICONTL              5              H/bohr 
       GEO_MAXCYC           IOPTCY             50               ***   
       GEO_MAXSTEP          IMXSTP            300            millibohr
       GEO_METHOD           INR            SINGLE_POINT[  5]    ***   
       GIAO                 IGIAO          OFF         [  1]    ***   
       GIMIC                IGIMIC         OFF         [  0]    ***   
       GRID                 IGRID          OFF         [  0]    ***   
       GRID_ALGO            IGALGO         SERIAL      [  0]    ***   
       GUESS                IGUESS         MOREAD      [  0]    ***   
       HBAR                 IHBAR          ON          [  1]    ***   
       HESS_TYPE            IHESTP         SCF         [  0]    ***   
       HF2_FILE             IHF2Fl         USE         [  1]    ***   
       HFSTABILITY          ISTABL         OFF         [  0]    ***   
       INCORE               INCORE         OFF         [  0]    ***   
       INPUT_MRCC           IMRCC          ON          [  1]    ***   
       INTEGRALS            INTTYP         VMOL        [  1]    ***   
       JODA_PRINT           IJPRNT              0               ***   
       KEYWORD_OUT          IDMPKW         NO          [  0]    ***   
       LINDEP_TOL           ILINDP              8               ***   
       LINEQ_CONV           IZTACN          10D-  7           cycles  
       LINEQ_EXPOR          ILMAXD              5               ***   
       LINEQ_MAXCY          ILMAXC            100               ***   
       LINEQ_TYPE           ILTYPE         DIIS        [  1]    ***   
       LOCK_ORBOCC          ILOCOC         OFF         [  0]    ***   
       MEMORY_SIZE          IMEMSZ         *********           words  
       MEM_UNIT             IMEMU          GB          [  3]    ***   
       MRCC                 IMRCCC         OFF         [  0]    ***   
       MULTIPLICTY          IMULTP              1               ***   
       NACOUPLING           IVCOUP         OFF         [  0]    ***   
       NEGEVAL              IDIE           ABORT       [  0]    ***   
       NEWNORM              INEWNO         OFF         [  0]    ***   
       NON-HF               INONHF         OFF         [  0]    ***   
       NTOP_TAMP            ITOPT2             15               ***   
       NUC_MODEL            INUCMO         POINT       [  0]    ***   
       OCCUPATION           IOCCU   ESTIMATED BY SCF 
       OPEN-SHELL           IOPEN          SPIN-ORBITAL[  0]    ***   
       OPTVIB               IOPTVB         OFF         [  0]    ***   
       ORBITALS             IORBTP         STANDARD    [  0]    ***   
       PARALLEL             IPARAL         ON          [  1]    ***   
       PARA_INT             IPINTS         ON          [  1]    ***   
       PARA_PRINT           IPPRIN              0               ***   
       PERT_ORB             IPTORB         STANDARD    [  0]    ***   
       POINTS               IGRDFD              0               ***   
       PRINT                IPRNT               0               ***   
       PROPS                IPROPS         OFF         [  0]    ***   
       PROP_INTEGR          IINTYP         INTERNAL    [  0]    ***   
       PSI                  IPSI           OFF         [  0]    ***   
       QC_ALG               IQCALG         FLM         [  0]    ***   
       QC_LINALG            IQCLIN         TRIDIAG     [  2]    ***   
       QC_MAXCYC            IQCMAX          10D-100           cycles  
       QC_MAXSCFCY          IQCMSC          10D- 15           cycles  
       QC_RTRUST            IQCRTR          10D-  0           x 10-3  
       QC_SKIPSCF           IQCSKI         OFF         [  0]    ***   
       QC_START             IQCSTA          10D-  1             ***   
       QRHFGUESS            IQGUES         OFF         [  0]    ***   
       QUARTIC              IQUART         OFF         [  0]    ***   
       RAMAN_INT            IRAMIN         OFF         [  0]    ***   
       RAMAN_ORB            IRAMRE         UNRELAXED   [  0]    ***   
       RDO                  IRDOFM         OFF         [  0]    ***   
       REDUCE_REPR          REDREP         Ir          [  0]    ***   
       REFERENCE            IREFNC         RHF         [  0]    ***   
       RELATIVIST           IRELAT         OFF         [  0]    ***   
       RELAX_DENS           IRDENS         OFF         [  0]    ***   
       RESET_FLAGS          IRESET         OFF         [  0]    ***   
       RESTART_CC           ICCRES         OFF         [  0]    ***   
       ROT_EVEC             ROTVEC              0               ***   
       SAVE_INTS            ISVINT         OFF         [  0]    ***   
       SCALE_ON             ISTCRT              0               ***   
       SCF_CONV             ISCFCV          10D-  8             ***   
       SCF_DAMPING          IDAMP               0             x 10-3  
       SCF_EXPORDE          IRPPOR              6               ***   
       SCF_EXPSTAR          IRPPLS              8               ***   
       SCF_EXTRAPO          IRPP           ON          [  1]    ***   
       SCF_MAXCYC           ISCFCY            150              cycles 
       SCF_NOSTOP           ISCFST         OFF         [  0]    ***   
       SCF_PRINT            ISCFPR              0               ***   
       SCF_PROG             ISCFPR         SCF         [  0]    ***   
       SD_FIELD             IFINSD              0             x 10-6  
       SOPERT               IPERSO         OFF         [  0]    ***   
       SPHERICAL            IDFGHI         ON          [  1]    ***   
       SPINORBIT            ISOCAL         OFF         [  0]    ***   
       SPINROTATIO          ISRCON         OFF         [  0]    ***   
       SPIN_FLIP            ISPFLP         OFF         [  0]    ***   
       SPIN_ORBIT           ISPORB         OFF         [  0]    ***   
       SPIN_SCAL            ISCSMP         OFF         [  0]    ***   
       STEEPSCALE           ISTPSC              1000          x 10-3  
       SUBGROUP             ISUBGP         DEFAULT     [  0]    ***   
       SUBGRPAXIS           ISBXYZ         X           [  0]    ***   
       SYMMETRY             ISYM           ON          [  0]    ***   
       SYM_CHECK            ISYMCK         OVERRIDE    [  1]    ***   
       T3_EXTRAPOL          IT3EXT         OFF         [  0]    ***   
       T4_EXTRAPOL          IT4EXP         OFF         [  0]    ***   
       TAMP_SUM             IEVERY              5               ***   
       TESTSUITE            ITESTS         OFF         [  0]    ***   
       THERMOCH             ITHERM         OFF         [  0]    ***   
       TOL_CHOLESK          ITOLCH          10D-  4             ***   
       TRANGRAD             IRESRM         OFF         [  0]    ***   
       TRANS_INV            ITRAIN         USE         [  0]    ***   
       TREAT_PERT           ITREAT         SIMULTANEOUS[  0]    ***   
       TRIP_ALGORI          ITRALG         NORMAL      [  0]    ***   
       UIJ_THRESHO          IUIJTH              1               ***   
       UNITS                IUNITS         BOHR        [  1]    ***   
       UNOS                 IUNOS          OFF         [  0]    ***   
       UPDATE_HESS          IHUPDT         ON          [  1]    ***   
       VIBPHASE             ISETPH         STANDARD    [  0]    ***   
       VIBRATION            IVIB           NO          [  0]    ***   
       VIB_ALGORIT          IGEALG         STANDARD    [  0]    ***   
       VNATORB              IVNORB         OFF         [  0]    ***   
       VTRAN                IVTRAN         FULL/PARTIAL[  0]    ***   
       XFIELD               IXEFLD              0             x 10-6  
       XFORM_TOL            IXFTOL          10D- 11             ***   
       YFIELD               IYEFLD              0             x 10-6  
       ZFIELD               IZEFLD              0             x 10-6  
       ZSCALE_EXP           IZEXPS         OFF         [  0]    ***   
    -------------------------------------------------------------------
  @GETXYZ-I,     3 atoms read from ZMAT.
   Rotational constants (in cm-1): 
          9.4902686961            14.5740134783            27.2065789719
   Rotational constants (in MHz): 
     284511.1378075283        436917.9935688575        815632.8326432100
********************************************************************************
   The full molecular point group is C2v .
   The largest Abelian subgroup of the full molecular point group is C2v .
   The computational point group is C2v .
********************************************************************************


 ----------------------------------------------------------------
         Coordinates used in calculation (QCOMP) 
 ----------------------------------------------------------------
 Z-matrix   Atomic            Coordinates (in bohr)
  Symbol    Number           X              Y              Z
 ----------------------------------------------------------------
     O         8         0.00000000     0.00000000    -0.12442659
     H         1         0.00000000     1.43152878     0.98737016
     H         1         0.00000000    -1.43152878     0.98737016
 ----------------------------------------------------------------
 
   Interatomic distance matrix (Angstroms) 
 
                 O             H             H    
                [ 1]        [ 2]        [ 3]
  O    [ 1]     0.00000
  H    [ 2]     0.95916     0.00000
  H    [ 3]     0.95916     1.51506     0.00000
 rotcon2
   Rotational constants (in cm-1): 
          9.4902686961            27.2065789719            14.5740134783
   Rotational constants (in MHz): 
     284511.1378075283        815632.8326432100        436917.9935688575
  There is   1 frozen-core orbital.
  There are   41 basis functions.
 @GEOPT-W, Archive file not created for single-point calculation.
 @CHECKOUT-I, Total execution time (CPU/WALL):        0.16/       1.50 seconds.
--executable xjoda finished with status     0 in        2.02 seconds (walltime).
 --invoking executable--
/home/CEISAM/blondel-a/soft/cfour2.1/cfour2.1-serial-mkl/bin/xvmol
 SERIAL VERSION OF MOLECULE STARTED
********************************************************************************
                    INPUT FROM MOL FILE
********************************************************************************
INTGRL        1    0    1    0    0    0    0    0    0                         
         *** CFOUR Program System (Release V0.1) ***                            
Ketene -GS                                                                      
    2    2 X  Y       0.10E-08              0    0                              
   9999.00      3.00                                                            
          8.00000000    1    3    1    1    1                                   
O #1   0.000000000000000   0.000000000000000  -0.124426592697155                
   10    4                                                                      
   11720.0000000000       7.100000000000000E-004 -1.600000000000000E-004        
  0.000000000000000E+000  0.000000000000000E+000                                
   1759.00000000000       5.470000000000000E-003 -1.263000000000000E-003        
  0.000000000000000E+000  0.000000000000000E+000                                
   400.800000000000       2.783700000000000E-002 -6.267000000000000E-003        
  0.000000000000000E+000  0.000000000000000E+000                                
   113.700000000000       0.104800000000000      -2.571600000000000E-002        
  0.000000000000000E+000  0.000000000000000E+000                                
   37.0300000000000       0.283062000000000      -7.092400000000000E-002        
  0.000000000000000E+000  0.000000000000000E+000                                
   13.2700000000000       0.448719000000000      -0.165411000000000             
  0.000000000000000E+000  0.000000000000000E+000                                
   5.02500000000000       0.270952000000000      -0.116955000000000             
  0.000000000000000E+000  0.000000000000000E+000                                
   1.01300000000000       1.545800000000000E-002  0.557368000000000             
  0.000000000000000E+000  0.000000000000000E+000                                
  0.302300000000000      -2.585000000000000E-003  0.572759000000000             
   1.00000000000000       0.000000000000000E+000                                
  7.896000000000000E-002  0.000000000000000E+000  0.000000000000000E+000        
  0.000000000000000E+000   1.00000000000000                                     
    5    3                                                                      
   17.7000000000000       4.301800000000000E-002  0.000000000000000E+000        
  0.000000000000000E+000                                                        
   3.85400000000000       0.228913000000000       0.000000000000000E+000        
  0.000000000000000E+000                                                        
   1.04600000000000       0.508728000000000       0.000000000000000E+000        
  0.000000000000000E+000                                                        
  0.275300000000000       0.460531000000000        1.00000000000000             
  0.000000000000000E+000                                                        
  6.856000000000000E-002  0.000000000000000E+000  0.000000000000000E+000        
   1.00000000000000                                                             
    2    2                                                                      
   1.18500000000000        1.00000000000000       0.000000000000000E+000        
  0.332000000000000       0.000000000000000E+000   1.00000000000000             
          1.00000000    1    2    1    1                                        
H #2   0.000000000000000   1.431528778600000   0.987370157902845                
    5    3                                                                      
   13.0100000000000       1.968500000000000E-002  0.000000000000000E+000        
  0.000000000000000E+000                                                        
   1.96200000000000       0.137977000000000       0.000000000000000E+000        
  0.000000000000000E+000                                                        
  0.444600000000000       0.478148000000000       0.000000000000000E+000        
  0.000000000000000E+000                                                        
  0.122000000000000       0.501240000000000        1.00000000000000             
  0.000000000000000E+000                                                        
  2.974000000000000E-002  0.000000000000000E+000  0.000000000000000E+000        
   1.00000000000000                                                             
    2    2                                                                      
  0.727000000000000        1.00000000000000       0.000000000000000E+000        
  0.141000000000000       0.000000000000000E+000   1.00000000000000             
FINISH                                                                          
 
********************************************************************************
 ONE- AND TWO-ELECTRON INTEGRALS OVER SYMMETRY-ADAPTED AOS ARE CALCULATED.

  SPHERICAL HARMONICS ARE USED.
  
  INTEGRALS LESS THAN  0.10E-13 ARE NEGLECTED.

  NUCLEAR REPULSION ENERGY :    9.1765804707 A.U.
  @MOLECU-I, ONE ELECTRON INTEGRALS (CPU/WALL):        0.02/       0.03 SECONDS.
  @TWOEL-I,      16224 INTEGRALS OF SYMMETRY TYPE  I I I I
  @TWOEL-I,      36629 INTEGRALS OF SYMMETRY TYPE  I J I J
  @TWOEL-I,      21412 INTEGRALS OF SYMMETRY TYPE  I I J J
  @TWOEL-I,      17042 INTEGRALS OF SYMMETRY TYPE  I J K L
  @TWOEL-I, TOTAL NUMBER OF 2-E INTEGRALS      91307.
  @MOLECU-I, TWO ELECTRON INTEGRALS (CPU/WALL):        0.90/       0.06 SECONDS.
 @CHECKOUT-I, Total execution time (CPU/WALL):        0.94/       0.10 seconds.

Running with 20 threads/proc

--executable xvmol finished with status     0 in        0.60 seconds (walltime).
 --invoking executable--
/home/CEISAM/blondel-a/soft/cfour2.1/cfour2.1-serial-mkl/bin/xvmol2ja
 @GETMEM-I,  Allocated  104904 MB of main memory.
 @CHECKOUT-I, Total execution time (CPU/WALL):        0.06/       0.03 seconds.
--executable xvmol2ja finished with status     0 in        0.52 seconds (walltime).
 --invoking executable--
/home/CEISAM/blondel-a/soft/cfour2.1/cfour2.1-serial-mkl/bin/xvscf
  There are   41 functions in the AO basis.

  There are 4 irreducible representations.

       Irrep        # of functions
         1                 18
         2                  7
         3                 12
         4                  4


  Parameters for SCF calculation: 
        SCF reference function:  RHF  
  Maximum number of iterations:  150
     Full symmetry point group: C2v 
     Computational point group: C2v 
        Initial density matrix: MOREAD                 
     SCF convergence tolerance: 10**(- 8)
  DIIS convergence acceleration:  ON
          Latest start for DIIS:   8
                     DIIS order:   6

  Memory information:     103046 words required.
  Fock matrices are constructed from AO integral file.
 @GETMEM-I,  Allocated       0 MB of main memory.
  Initialization and symmetry analysis required      0.002 seconds.

  @INITGES-I, Occupancies from core Hamiltonian:

          Alpha population by irrep:   3    1    1    0
           Beta population by irrep:   3    1    1    0


 total no. of electrons in initial guess :  0.000000000000000E+000
  --------------------------------------------------------------------
  Iteration         Total Energy            Largest Density Difference
  --------------------------------------------------------------------
       0             9.176580470691922              0.0000000000D+00
   current occupation vector 
     3  1  1  0
     3  1  1  0
       1           -68.573116130471675              0.1047216244D+02
   current occupation vector 
     3  1  1  0
     3  1  1  0
       2           -66.593442879705592              0.2333412663D+02
   current occupation vector 
     3  0  2  0
     3  0  2  0
       3           -72.468770381900967              0.2334298218D+02
   current occupation vector 
     3  1  1  0
     3  1  1  0
       4           -69.116346827668607              0.2041556130D+02
   current occupation vector 
     3  0  2  0
     3  0  2  0
       5           -73.136036169151922              0.2041560402D+02
   current occupation vector 
     3  1  1  0
     3  1  1  0
       6           -69.608631660702187              0.1985429827D+02
   current occupation vector 
     3  0  2  0
     3  0  2  0
       7           -73.282417860018697              0.1985429962D+02
   current occupation vector 
     3  1  1  0
     3  1  1  0
       8           -69.727731880655398              0.1974180201D+02
   current occupation vector 
     3  0  2  0
     3  0  2  0
       9           -75.855109352473534              0.1974160038D+02
   current occupation vector 
     3  1  1  0
     3  1  1  0
      10           -76.040190612176531              0.4671496520D+00
   current occupation vector 
     3  1  1  0
     3  1  1  0
      11           -76.041259497697823              0.3916172182D-01
   current occupation vector 
     3  1  1  0
     3  1  1  0
      12           -76.041300973354538              0.1125783142D-01
   current occupation vector 
     3  1  1  0
     3  1  1  0
      13           -76.041301859467197              0.1265085137D-02
   current occupation vector 
     3  1  1  0
     3  1  1  0
      14           -76.041302022182080              0.4717313273D-03
   current occupation vector 
     3  1  1  0
     3  1  1  0
      15           -76.041302029572506              0.1654089243D-03
   current occupation vector 
     3  1  1  0
     3  1  1  0
      16           -76.041302029645124              0.1350722708D-04
   current occupation vector 
     3  1  1  0
     3  1  1  0
      17           -76.041302029648676              0.3026676965D-05
   current occupation vector 
     3  1  1  0
     3  1  1  0
      18           -76.041302029648833              0.5903691971D-06
   current occupation vector 
     3  1  1  0
     3  1  1  0
      19           -76.041302029648961              0.7883975894D-07
   current occupation vector 
     3  1  1  0
     3  1  1  0
      20           -76.041302029648918              0.1745681177D-07
   current occupation vector 
     3  1  1  0
     3  1  1  0

  SCF has converged.

 Density matrix saved to file den.dat
 total electron number:   9.99999999999999     
     E(SCF)=       -76.041302029648790              0.2374648256D-08

  Eigenvector printing suppressed.

 @PUTMOS-I, Writing converged MOs to NEWMOS. 
 @PUTMOS-I, Symmetry   1 Full Blocks  4 Partial Blocksize   2
 @PUTMOS-I, Symmetry   2 Full Blocks  1 Partial Blocksize   3
 @PUTMOS-I, Symmetry   3 Full Blocks  3 Partial Blocksize   0
 @PUTMOS-I, Symmetry   4 Full Blocks  1 Partial Blocksize   0
 @PUTFOCK-I, Writing converged Fock matrix to NEWFOCK. 
 @PUTFOCK-I, Symmetry   1 Full Blocks  4 Partial Blocksize   2
 @PUTFOCK-I, Symmetry   2 Full Blocks  1 Partial Blocksize   3
 @PUTFOCK-I, Symmetry   3 Full Blocks  3 Partial Blocksize   0
 @PUTFOCK-I, Symmetry   4 Full Blocks  1 Partial Blocksize   0


 
  ORBITAL EIGENVALUES (ALPHA)  (1H = 27.2113834 eV)

       MO #        E(hartree)               E(eV)           FULLSYM    COMPSYM
       ----   --------------------   --------------------   -------   ---------
    1     1         -20.5776679386        -559.9468117540      A1        A1 (1)
    2     2          -1.3557727360         -36.8924517224      A1        A1 (1)
    3    26          -0.7178802182         -19.5345138524      B2        B2 (3)
    4     3          -0.5856326711         -15.9358751448      A1        A1 (1)
    5    19          -0.5093340082         -13.8596829754      B1        B1 (2)
  +++++++++++++++++++++++++++++++++++++++++++++++++++++++++++++++++++++++++++++
    6     4           0.0353896284           0.9630007462      A1        A1 (1)
    7    27           0.0579339855           1.5764638926      B2        B2 (3)
    8     5           0.1739981373           4.7347300261      A1        A1 (1)
    9    20           0.1967907384           5.3549482325      B1        B1 (2)
   10     6           0.2225382253           6.0555729693      A1        A1 (1)
   11    28           0.2315509808           6.3008225163      B2        B2 (3)
   12    29           0.2901553727           7.8955290931      B2        B2 (3)
   13     7           0.3314779704           9.0199741424      A1        A1 (1)
   14    38           0.3857639446          10.4971705988      A2        A2 (4)
   15     8           0.4034694792          10.9789626898      A1        A1 (1)
   16    21           0.4332655995          11.7897563408      B1        B1 (2)
   17    30           0.5391068154          14.6698422486      B2        B2 (3)
   18     9           0.6481168937          17.6361572822      A1        A1 (1)
   19    31           0.6581808697          17.9100119917      B2        B2 (3)
   20    32           0.8105238904          22.0554763364      B2        B2 (3)
   21    10           0.9297955580          25.3010234118      A1        A1 (1)
   22    22           1.1013266726          29.9686223355      B1        B1 (2)
   23    11           1.1156110553          30.3573201520      A1        A1 (1)
   24    39           1.1487154311          31.2581360130      A2        A2 (4)
   25    12           1.3063331298          35.5471316423      A1        A1 (1)
   26    33           1.4662477212          39.8986289022      B2        B2 (3)
   27    23           1.4824005882          40.3381707576      B1        B1 (2)
   28    13           1.5833765774          43.0858671149      A1        A1 (1)
   29    34           2.0026632078          54.4952363694      B2        B2 (3)
   30    40           2.0100149063          54.6952862544      A2        A2 (4)
   31    24           2.1084332442          57.3733853811      B1        B1 (2)
   32    14           2.3655559212          64.3700491255      A1        A1 (1)
   33    35           2.4792297253          67.4632705922      B2        B2 (3)
   34    15           2.6244910882          71.4160332302      A1        A1 (1)
   35    36           2.7141729449          73.8564006177      B2        B2 (3)
   36    16           2.9675914011          80.7522673904      A1        A1 (1)
   37    25           3.6730376012          99.9484344089      B1        B1 (2)
   38    17           3.6901875081         100.4151071012      A1        A1 (1)
   39    41           3.7025723506         100.7521157983      A2        A2 (4)
   40    18           4.0237559712         109.4919664408      A1        A1 (1)
   41    37           4.3055317345         117.1594747683      B2        B2 (3)


  VSCF finished.

 @CHECKOUT-I, Total execution time (CPU/WALL):        3.72/       0.33 seconds.
--executable xvscf finished with status     0 in        0.82 seconds (walltime).
 --invoking executable--
/home/CEISAM/blondel-a/soft/cfour2.1/cfour2.1-serial-mkl/bin/xvtran
 @GETMEM-I,  Allocated  104904 MB of main memory.
  Full RHF integral transformation
  The following   1 MOs will be dropped:
    1
  There are  40 active molecular orbitals.
  Transformation of IIII integrals :
  1 pass through the AO integral file was required.
       16224 AO integrals were read.
       15323 MO integrals were written to HF2.
  Transformation of IIJJ integrals :
  1 pass through the AO integral file was required.
       21412 AO integrals were read.
       20992 MO integrals were written to HF2.
  Transformation of IJIJ integrals :
  1 pass through the AO integral file was required.
       36629 AO integrals were read.
       35548 MO integrals were written to HF2.
  Transformation of IJKL integrals :
  1 pass through the AO integral file was required.
       17042 AO integrals were read.
       17136 MO integrals were written to HF2.
  Summary of active molecular orbitals: 
------------------------------------------------------------------------
 
  Index      Eigenvalue    Symmetry    Index      Eigenvalue    Symmetry
------------------------------------------------------------------------
     1        -1.3557727        1        21         0.4332656        2
     2        -0.5856327        1        22         1.1013267        2
     3        -0.5093340        2        23         1.4824006        2
     4        -0.7178802        3        24         2.1084332        2
     5         0.0353896        1        25         3.6730376        2
     6         0.1739981        1        26         0.0579340        3
     7         0.2225382        1        27         0.2315510        3
     8         0.3314780        1        28         0.2901554        3
     9         0.4034695        1        29         0.5391068        3
    10         0.6481169        1        30         0.6581809        3
    11         0.9297956        1        31         0.8105239        3
    12         1.1156111        1        32         1.4662477        3
    13         1.3063331        1        33         2.0026632        3
    14         1.5833766        1        34         2.4792297        3
    15         2.3655559        1        35         2.7141729        3
    16         2.6244911        1        36         4.3055317        3
    17         2.9675914        1        37         0.3857639        4
    18         3.6901875        1        38         1.1487154        4
    19         4.0237560        1        39         2.0100149        4
    20         0.1967907        2        40         3.7025724        4
------------------------------------------------------------------------
  -1.35577273599291      -0.585632671096893      -0.509334008185741     
 -0.717880218188978       3.538962838024875E-002  0.173998137341655     
  0.222538225281821       0.331477970444826       0.403469479239727     
  0.648116893688929       0.929795557979260        1.11561105533549     
   1.30633312977053        1.58337657742661        2.36555592118485     
   2.62449108817548        2.96759140111799        3.69018750811591     
   4.02375597121561       0.196790738413745       0.433265599456509     
   1.10132667255204        1.48240058819057        2.10843324419556     
   3.67303760120140       5.793398554559904E-002  0.231550980840082     
  0.290155372735771       0.539106815443470       0.658180869690342     
  0.810523890396430        1.46624772124741        2.00266320783290     
   2.47922972531366        2.71417294490589        4.30553173449753     
  0.385763944614423        1.14871543109363        2.01001490627561     
   3.70257235059706     
 @CHECKOUT-I, Total execution time (CPU/WALL):        0.04/       0.06 seconds.
--executable xvtran finished with status     0 in        0.55 seconds (walltime).
 --invoking executable--
/home/CEISAM/blondel-a/soft/cfour2.1/cfour2.1-serial-mkl/bin/xintprc
 @GETMEM-I,  Allocated  104904 MB of main memory.
  @GMOIAA-I, Processing MO integrals for spin case AA.
  @GMOIAA-I, Generation of integral list completed.
                      TYPE                NUMBER
                      ----               --------
                      PPPP                 58654
                      PPPH                 25252
                      PPHH                  2810
                      PHPH                  1857
                      PHHH                   404
                      HHHH                    22

                     TOTAL                 88999

  @FORMT2-I, Second-order MP correlation energies:
            ------------------------------------------------
            E(SCF)                  =    -76.041302029649 a.u.
            E2(AA)                  =     -0.027930030921 a.u.
            E2(AB)                  =     -0.163661286995 a.u.
            E2(TOT)                 =     -0.219521348837 a.u.
            Total MP2 energy        =    -76.260823378486 a.u.
            ------------------------------------------------
   Largest T2 amplitudes for spin case AB:
       _       _                 _       _                 _       _
   i   j   a   b             i   j   a   b             i   j   a   b
-----------------------------------------------------------------------------
[  3   3  23  23]-0.03292 [  4   4  31  31]-0.02213 [  2   2  14  14]-0.01915
[  2   2  31  31]-0.01804 [  3   2  23  14]-0.01743 [  2   3  14  23]-0.01743
[  4   4  28  28]-0.01742 [  3   3  20  20]-0.01708 [  2   2   9   9]-0.01652
[  3   3  23  20]-0.01627 [  3   3  20  23]-0.01627 [  2   2  12  12]-0.01598
[  4   4  31  28]-0.01577 [  4   4  28  31]-0.01577 [  3   3  22  22]-0.01509
-----------------------------------------------------------------------------
   Norm of T2AB vector (     5476 symmetry allowed elements):  0.2090880187.
-----------------------------------------------------------------------------
 @CHECKOUT-I, Total execution time (CPU/WALL):        0.11/       0.07 seconds.
--executable xintprc finished with status     0 in        0.57 seconds (walltime).
  calling xvcc 
 --invoking executable--
/home/CEISAM/blondel-a/soft/cfour2.1/cfour2.1-serial-mkl/bin/xvcc
 @GETMEM-I,  Allocated  104904 MB of main memory.
   CC2 energy will be calculated.
   The total correlation energy is -0.219521348837 a.u.
   The total correlation energy is -0.219432136729 a.u.
  Convergence information after     1 iterations: 
  Largest element of residual vector : -0.17057566E-01.
  Largest element of DIIS residual   : -0.17057566E-01.
   The total correlation energy is -0.221170958042 a.u.
  Convergence information after     2 iterations: 
  Largest element of residual vector : -0.30758815E-02.
  Largest element of DIIS residual   : -0.24315895E-02.
   The total correlation energy is -0.221437878589 a.u.
  Convergence information after     3 iterations: 
  Largest element of residual vector : -0.35769541E-02.
  Largest element of DIIS residual   : -0.10096186E-02.
   The total correlation energy is -0.221798615091 a.u.
  Convergence information after     4 iterations: 
  Largest element of residual vector : -0.36330615E-03.
  Largest element of DIIS residual   : -0.16306363E-03.
   The total correlation energy is -0.221803697401 a.u.
  Convergence information after     5 iterations: 
  Largest element of residual vector : -0.15528144E-03.
  Largest element of DIIS residual   : -0.67971961E-04.
   The total correlation energy is -0.221804026886 a.u.
  Convergence information after     6 iterations: 
  Largest element of residual vector : -0.28411200E-04.
  Largest element of DIIS residual   :  0.16760006E-04.
   The total correlation energy is -0.221804810621 a.u.
  Convergence information after     7 iterations: 
  Largest element of residual vector : -0.14962897E-04.
  Largest element of DIIS residual   : -0.84627775E-05.
   The total correlation energy is -0.221804790348 a.u.
  Convergence information after     8 iterations: 
  Largest element of residual vector :  0.31961228E-05.
  Largest element of DIIS residual   :  0.23272537E-05.
   The total correlation energy is -0.221804892737 a.u.
  Convergence information after     9 iterations: 
  Largest element of residual vector : -0.17242005E-05.
  Largest element of DIIS residual   : -0.80772521E-06.
   The total correlation energy is -0.221804907850 a.u.
  Convergence information after    10 iterations: 
  Largest element of residual vector : -0.49028187E-06.
  Largest element of DIIS residual   :  0.36063280E-06.
   The total correlation energy is -0.221804926479 a.u.
  Convergence information after    11 iterations: 
  Largest element of residual vector :  0.14341887E-06.
  Largest element of DIIS residual   : -0.74687614E-07.
   The total correlation energy is -0.221804932181 a.u.
  Convergence information after    12 iterations: 
  Largest element of residual vector :  0.71939234E-07.
  Largest element of DIIS residual   : -0.29917327E-07.
  Amplitude equations converged in    12iterations.
   The total correlation energy is -0.221804934966 a.u.
   The CC iterations have converged.

   Largest T1 amplitudes for spin case AA:
   i       a                 i       a                 i       a    
-----------------------------------------------------------------------------
[  3      20    ]-0.02645 [  3      21    ]-0.01793 [  2       6    ] 0.01545
[  2       9    ]-0.01349 [  4      34    ] 0.00773 [  2       5    ]-0.00581
[  2      16    ]-0.00420 [  4      28    ]-0.00414 [  4      27    ]-0.00378
[  1       7    ] 0.00372 [  4      26    ]-0.00346 [  1      16    ]-0.00343
[  2       7    ]-0.00335 [  2      14    ] 0.00317 [  1       9    ] 0.00315
-----------------------------------------------------------------------------
   Norm of T1AA vector (       47 symmetry allowed elements):  0.0412696876.
-----------------------------------------------------------------------------
   Largest T2 amplitudes for spin case AB:
       _       _                 _       _                 _       _
   i   j   a   b             i   j   a   b             i   j   a   b
-----------------------------------------------------------------------------
[  3   3  23  23]-0.03222 [  4   4  31  31]-0.02213 [  3   3  20  20]-0.02072
[  2   2  14  14]-0.01887 [  2   2   9   9]-0.01807 [  2   2  31  31]-0.01802
[  4   4  28  28]-0.01794 [  3   3  23  20]-0.01733 [  3   3  20  23]-0.01733
[  3   2  23  14]-0.01706 [  2   3  14  23]-0.01706 [  4   4  31  28]-0.01588
[  4   4  28  31]-0.01588 [  2   2  12  12]-0.01580 [  3   3  23  21]-0.01539
-----------------------------------------------------------------------------
   Norm of T2AB vector (     5476 symmetry allowed elements):  0.2139448728.
-----------------------------------------------------------------------------
       Summary of iterative solution of CC equations 
      -----------------------------------------------------------
                       Correlation           Total
       Iteration         Energy              Energy
      -----------------------------------------------------------
            0        -0.219521348837     -76.260823378486  DIIS 
            1        -0.219432136729     -76.260734166378  DIIS 
            2        -0.221170958042     -76.262472987691  DIIS 
            3        -0.221437878589     -76.262739908238  DIIS 
            4        -0.221798615091     -76.263100644740  DIIS 
            5        -0.221803697401     -76.263105727050  DIIS 
            6        -0.221804026886     -76.263106056535  DIIS 
            7        -0.221804810621     -76.263106840270  DIIS 
            8        -0.221804790348     -76.263106819997  DIIS 
            9        -0.221804892737     -76.263106922386  DIIS 
           10        -0.221804907850     -76.263106937499  DIIS 
           11        -0.221804926479     -76.263106956128  DIIS 
           12        -0.221804934966     -76.263106964615  DIIS 
      -----------------------------------------------------------
      A miracle has come to pass. The CC iterations have converged.
      The reference energy is       -76.04130202964879 a.u.
      The correlation energy is      -0.22180493496575 a.u.
      The total energy is           -76.26310696461454 a.u.
 @CHECKOUT-I, Total execution time (CPU/WALL):        2.75/       0.17 seconds.
--executable xvcc finished with status     0 in        0.74 seconds (walltime).
 --invoking executable--
/home/CEISAM/blondel-a/soft/cfour2.1/cfour2.1-serial-mkl/bin/xlambda
 @GETMEM-I,  Allocated  104904 MB of main memory.
 Hbar is calculated for a CC2 wave function.
 Calculation of Hbar completed.
 @CHECKOUT-I, Total execution time (CPU/WALL):        0.51/       0.07 seconds.
--executable xlambda finished with status     0 in        0.58 seconds (walltime).
 --invoking executable--
/home/CEISAM/blondel-a/soft/cfour2.1/cfour2.1-serial-mkl/bin/xvee
 @GETMEM-I,  Allocated  104904 MB of main memory.
  cc2 and ccprog  T                     0
  EOMEE-CC2 excitation energies will be evaluated.
  @SETMET-I, VPROP property integrals are used.
  @SETMET-I, A total of   4 target states will be studied.
  Summary of active alpha molecular orbitals:
------------------------------------------------------------------------------
Orbital      Sym   Eigenvalue  <xx>     <yy>     <zz>     <xy>     <xz>     <yz>
        SCF
  #  position
------------------------------------------------------------------------------
   1      2    1      -1.3558   0.000    0.000    0.000    0.000    0.000    0.000
   2      4    1      -0.5856   0.000    0.000    0.000    0.000    0.000    0.000
   3      5    2      -0.5093   0.000    0.000    0.000    0.000    0.000    0.000
   4      3    3      -0.7179   0.000    0.000    0.000    0.000    0.000    0.000
   5      6    1       0.0354   0.000    0.000    0.000    0.000    0.000    0.000
   6      8    1       0.1740   0.000    0.000    0.000    0.000    0.000    0.000
   7     10    1       0.2225   0.000    0.000    0.000    0.000    0.000    0.000
   8     13    1       0.3315   0.000    0.000    0.000    0.000    0.000    0.000
   9     15    1       0.4035   0.000    0.000    0.000    0.000    0.000    0.000
  10     18    1       0.6481   0.000    0.000    0.000    0.000    0.000    0.000
  11     21    1       0.9298   0.000    0.000    0.000    0.000    0.000    0.000
  12     23    1       1.1156   0.000    0.000    0.000    0.000    0.000    0.000
  13     25    1       1.3063   0.000    0.000    0.000    0.000    0.000    0.000
  14     28    1       1.5834   0.000    0.000    0.000    0.000    0.000    0.000
  15     32    1       2.3656   0.000    0.000    0.000    0.000    0.000    0.000
  16     34    1       2.6245   0.000    0.000    0.000    0.000    0.000    0.000
  17     36    1       2.9676   0.000    0.000    0.000    0.000    0.000    0.000
  18     38    1       3.6902   0.000    0.000    0.000    0.000    0.000    0.000
  19     40    1       4.0238   0.000    0.000    0.000    0.000    0.000    0.000
  20      9    2       0.1968   0.000    0.000    0.000    0.000    0.000    0.000
  21     16    2       0.4333   0.000    0.000    0.000    0.000    0.000    0.000
  22     22    2       1.1013   0.000    0.000    0.000    0.000    0.000    0.000
  23     27    2       1.4824   0.000    0.000    0.000    0.000    0.000    0.000
  24     31    2       2.1084   0.000    0.000    0.000    0.000    0.000    0.000
  25     37    2       3.6730   0.000    0.000    0.000    0.000    0.000    0.000
  26      7    3       0.0579   0.000    0.000    0.000    0.000    0.000    0.000
  27     11    3       0.2316   0.000    0.000    0.000    0.000    0.000    0.000
  28     12    3       0.2902   0.000    0.000    0.000    0.000    0.000    0.000
  29     17    3       0.5391   0.000    0.000    0.000    0.000    0.000    0.000
  30     19    3       0.6582   0.000    0.000    0.000    0.000    0.000    0.000
  31     20    3       0.8105   0.000    0.000    0.000    0.000    0.000    0.000
  32     26    3       1.4662   0.000    0.000    0.000    0.000    0.000    0.000
  33     29    3       2.0027   0.000    0.000    0.000    0.000    0.000    0.000
  34     33    3       2.4792   0.000    0.000    0.000    0.000    0.000    0.000
  35     35    3       2.7142   0.000    0.000    0.000    0.000    0.000    0.000
  36     41    3       4.3055   0.000    0.000    0.000    0.000    0.000    0.000
  37     14    4       0.3858   0.000    0.000    0.000    0.000    0.000    0.000
  38     24    4       1.1487   0.000    0.000    0.000    0.000    0.000    0.000
  39     30    4       2.0100   0.000    0.000    0.000    0.000    0.000    0.000
  40     39    4       3.7026   0.000    0.000    0.000    0.000    0.000    0.000
------------------------------------------------------------------------------
  @DRVTDA-I, Roots obtained by Davidson method.
  calling tda davidson                       4                     1
  after tda davidson                      4                     4
                     1                     1
  kroot is                      1
  calling tda davidson                       4                     2
  after tda davidson                      4                     4
                     1                     1
  kroot is                      1
  calling tda davidson                       4                     3
  after tda davidson                      4                     4
                     1                     1
  kroot is                      1
  calling tda davidson                       4                     4
  after tda davidson                      4                     4
                     1                     1
  kroot is                      1
__________________________________________________________________________
    Tamm-Dancoff (CIS) Excitation Energies and Transition Moments

                Excitation         Transition Dipole         Oscillator
 Root  Symmetry  Energy         x           y           z     Strength
__________________________________________________________________________
   1       1    0.40422      0.0000      0.0000      0.0000  .00000000D+00
__________________________________________________________________________
 
__________________________________________________________________________
  TDA excitation ergy:             0.404219188126 a.u.   10.9994 eV
  Total TDA electronic energy:   -75.637082841522 a.u.
 
  Dominant contributions: 
  SCF eigenvalue ordering used in list below. 
--------------------------------------------------------------------------------
    I    j    A    b
--------------------------------------------------------------------------------
    4    0    6    0  -0.8489868146 AA  
    4    0   10    0   0.3752020760 AA  
    4    0    8    0   0.2682277826 AA  
    5    0    9    0   0.2027071566 AA  
    4    0   18    0  -0.1177595299 AA  
    5    0   16    0   0.0713229038 AA  
    4    0   13    0  -0.0486919523 AA  
    4    0   15    0  -0.0277278426 AA  
    5    0   27    0   0.0261761791 AA  
    4    0   21    0   0.0222560562 AA  
    3    0   12    0   0.0189877901 AA  
    4    0   25    0   0.0188700754 AA  
    3    0   20    0   0.0173126002 AA  
    4    0   34    0   0.0169659766 AA  
    2    0   15    0  -0.0118395110 AA  
--------------------------------------------------------------------------------
   1       2    0.31856      0.0000      0.0000      0.0000  .00000000D+00
__________________________________________________________________________
 
__________________________________________________________________________
  TDA excitation ergy:             0.318556431342 a.u.    8.6684 eV
  Total TDA electronic energy:   -75.722745598306 a.u.
 
  Dominant contributions: 
  SCF eigenvalue ordering used in list below. 
--------------------------------------------------------------------------------
    I    j    A    b
--------------------------------------------------------------------------------
    5    0    6    0  -0.8382988579 AA  
    5    0   10    0   0.3680212568 AA  
    5    0    8    0   0.3562037802 AA  
    5    0   18    0  -0.1406143115 AA  
    5    0   15    0  -0.0846452265 AA  
    5    0   13    0  -0.0675231640 AA  
    5    0   25    0   0.0394908421 AA  
    5    0   21    0   0.0269803638 AA  
    5    0   34    0   0.0181480251 AA  
    4    0    9    0   0.0152022591 AA  
    5    0   23    0   0.0110763820 AA  
    2    0    9    0  -0.0095024928 AA  
    5    0   28    0  -0.0093543623 AA  
    2    0   16    0  -0.0078506251 AA  
    5    0   40    0  -0.0061767824 AA  
--------------------------------------------------------------------------------
   1       3    0.46510      0.0000      0.0000      0.0000  .00000000D+00
__________________________________________________________________________
 
__________________________________________________________________________
  TDA excitation ergy:             0.465103474016 a.u.   12.6561 eV
  Total TDA electronic energy:   -75.576198555633 a.u.
 
  Dominant contributions: 
  SCF eigenvalue ordering used in list below. 
--------------------------------------------------------------------------------
    I    j    A    b
--------------------------------------------------------------------------------
    4    0    7    0  -0.8607616425 AA  
    4    0   11    0  -0.3845504164 AA  
    4    0   12    0  -0.2934490516 AA  
    4    0   19    0  -0.1167914055 AA  
    4    0   20    0  -0.0540582804 AA  
    5    0   14    0   0.0496679089 AA  
    4    0   17    0  -0.0437926871 AA  
    4    0   26    0  -0.0391706012 AA  
    3    0    6    0  -0.0289022965 AA  
    5    0   24    0  -0.0178634240 AA  
    2    0   12    0  -0.0168812906 AA  
    3    0   21    0  -0.0163599081 AA  
    4    0   33    0  -0.0155782618 AA  
    3    0   13    0   0.0132696537 AA  
    3    0    8    0   0.0102807957 AA  
--------------------------------------------------------------------------------
   1       4    0.38043      0.0000      0.0000      0.0000  .00000000D+00
__________________________________________________________________________
 
__________________________________________________________________________
  TDA excitation ergy:             0.380431493604 a.u.   10.3521 eV
  Total TDA electronic energy:   -75.660870536045 a.u.
 
  Dominant contributions: 
  SCF eigenvalue ordering used in list below. 
--------------------------------------------------------------------------------
    I    j    A    b
--------------------------------------------------------------------------------
    5    0    7    0  -0.8142182074 AA  
    5    0   12    0  -0.3945889276 AA  
    5    0   11    0  -0.3834558303 AA  
    5    0   19    0  -0.1403698870 AA  
    5    0   20    0  -0.1008127270 AA  
    5    0   26    0  -0.0428172550 AA  
    5    0   17    0  -0.0427375738 AA  
    5    0   33    0  -0.0219693343 AA  
    2    0   14    0  -0.0118332364 AA  
    5    0   29    0  -0.0088113410 AA  
    5    0   35    0  -0.0053616255 AA  
    4    0   14    0   0.0047856961 AA  
    3    0   27    0   0.0031691906 AA  
    3    0    9    0   0.0025088451 AA  
    2    0   39    0   0.0020127876 AA  
--------------------------------------------------------------------------------
__________________________________________________________________________
  @DOEOMEE-I, Excitation energies computed by the EOMEE-CC2/CC2-LR method.
  @DOEOMEE-I, right-hand eigenvectors will be computed.
  Beginning symmetry block   1.   1 roots requested.
  @DOEOMEE-I, Matrix dimension for diagonalization:     5523
  Creating initial guess for root
________________________________________________________________________
            Subspace          Eigenvalue           
 Iteration  Dimension   (a.u.)         (eV)       Overlap      Residual
________________________________________________________________________
  @NEWGES-I, Using TDA initial guess.
  1   1  0.4807822924D+00  0.1308275129D+02  0.0000000000D+00  0.2844787778D+00
  2   2  0.3512127605D+00  0.9556985082D+01  0.9620431775D+00  0.4503953856D-01
  3   3  0.3494432820D+00  0.9508835122D+01  0.9990384003D+00  0.3994590424D-01
  4   4  0.3488215199D+00  0.9491916117D+01  0.9990129010D+00  0.1039662804D-01
  5   5  0.3486957156D+00  0.9488492807D+01  0.9998984581D+00  0.8232302302D-02
  6   6  0.3486255843D+00  0.9486584437D+01  0.9997856486D+00  0.4339362265D-02
  L-O-C-K-I-N-G O-N R-O-O-T 
  7   7  0.3486172227D+00  0.9486356907D+01  0.9999838022D+00  0.2782332180D-02
  8   8  0.3486098367D+00  0.9486155923D+01  0.9999892145D+00  0.1159699239D-02
  9   9  0.3486085770D+00  0.9486121645D+01  0.9999985517D+00  0.6975431481D-03
 10  10  0.3486083683D+00  0.9486115966D+01  0.9999996021D+00  0.2031805760D-03
 11  11  0.3486083112D+00  0.9486114412D+01  0.9999999862D+00  0.5478249085D-04
 12  12  0.3486083600D+00  0.9486115740D+01  0.9999999975D+00  0.2571371537D-04
 13  13  0.3486083767D+00  0.9486116196D+01  0.9999999994D+00  0.7406554761D-05
  Converged eigenvalue:   0.348608376742368       a.u.
   Total EOMEE-CC2 electronic energy      -75.914498587872174 a.u.
  Converged eigenvector 
  SCF eigenvalue ordering used in list below. 
--------------------------------------------------------------------------------
    I    j    A    b
--------------------------------------------------------------------------------
    4    0    6    0  -0.6148792408 AA  
    4    0   10    0   0.2164360912 AA  
    4    0    8    0   0.1623008973 AA  
    5    0    9    0   0.0800327637 AA  
    4    4    8    6   0.0575959622 ABAB
    4    4    6    8   0.0575959622 ABAB
    5    4    9    6  -0.0529994835 ABAB
    4    5    6    9  -0.0529994835 ABAB
    4    4   15    6  -0.0515238630 ABAB
    4    4    6   15  -0.0515238630 ABAB
    4    0   18    0  -0.0493970215 AA  
    5    4   16    6  -0.0389342488 ABAB
    4    5    6   16  -0.0389342488 ABAB
    3    4   12    6  -0.0377713935 ABAB
    4    3    6   12  -0.0377713935 ABAB
--------------------------------------------------------------------------------
  Converged eigenvector, normalized to one 
  SCF eigenvalue ordering used in list below. 
--------------------------------------------------------------------------------
    I    j    A    b
--------------------------------------------------------------------------------
    4    0    6    0  -0.6148792408 AA  
    4    0   10    0   0.2164360912 AA  
    4    0    8    0   0.1623008973 AA  
    5    0    9    0   0.0800327637 AA  
    4    4    8    6   0.0575959622 ABAB
    4    4    6    8   0.0575959622 ABAB
    5    4    9    6  -0.0529994835 ABAB
    4    5    6    9  -0.0529994835 ABAB
    4    4   15    6  -0.0515238630 ABAB
    4    4    6   15  -0.0515238630 ABAB
    4    0   18    0  -0.0493970215 AA  
    5    4   16    6  -0.0389342488 ABAB
    4    5    6   16  -0.0389342488 ABAB
    3    4   12    6  -0.0377713935 ABAB
    4    3    6   12  -0.0377713935 ABAB
--------------------------------------------------------------------------------

  Eigenvector is saved on CCRE_1_1  

  Solution of   1 roots required   13 iterations.
  @DOEOMEE-I, right-hand eigenvectors will be computed.
  Beginning symmetry block   2.   1 roots requested.
  @DOEOMEE-I, Matrix dimension for diagonalization:     4995
  Creating initial guess for root
________________________________________________________________________
            Subspace          Eigenvalue           
 Iteration  Dimension   (a.u.)         (eV)       Overlap      Residual
________________________________________________________________________
  @NEWGES-I, Using TDA initial guess.
  1   1  0.3946788358D+00  0.1073975712D+02  0.0000000000D+00  0.2849694971D+00
  2   2  0.2625376130D+00  0.7144011646D+01  0.9619444427D+00  0.3928736979D-01
  3   3  0.2611576425D+00  0.7106460739D+01  0.9992192619D+00  0.3980079030D-01
  4   4  0.2606206527D+00  0.7091848503D+01  0.9990466907D+00  0.7492308115D-02
  5   5  0.2605378941D+00  0.7089596526D+01  0.9999395361D+00  0.4531060809D-02
  L-O-C-K-I-N-G O-N R-O-O-T 
  6   6  0.2605226612D+00  0.7089182018D+01  0.9999791219D+00  0.1774279933D-02
  7   7  0.2605209315D+00  0.7089134952D+01  0.9999981137D+00  0.3515787569D-03
  8   8  0.2605203955D+00  0.7089120365D+01  0.9999999019D+00  0.3252516849D-03
  9   9  0.2605202670D+00  0.7089116868D+01  0.9999999135D+00  0.8172793285D-04
 10  10  0.2605202250D+00  0.7089115726D+01  0.9999999848D+00  0.3422786379D-04
 11  11  0.2605202286D+00  0.7089115825D+01  0.9999999993D+00  0.1391151820D-04
 12  12  0.2605202344D+00  0.7089115982D+01  0.9999999998D+00  0.4793768590D-05
  Converged eigenvalue:   0.260520234394761       a.u.
   Total EOMEE-CC2 electronic energy      -76.002586730219775 a.u.
  Converged eigenvector 
  SCF eigenvalue ordering used in list below. 
--------------------------------------------------------------------------------
    I    j    A    b
--------------------------------------------------------------------------------
    5    0    6    0   0.6120376410 AA  
    5    0   10    0  -0.2074875490 AA  
    5    0    8    0  -0.2002091353 AA  
    5    5    9    6   0.0674389969 ABAB
    5    5    6    9   0.0674389969 ABAB
    5    0   18    0   0.0556875566 AA  
    5    5   16    6   0.0459269602 ABAB
    5    5    6   16   0.0459269602 ABAB
    5    4    6    8  -0.0449741999 ABAB
    4    5    8    6  -0.0449741999 ABAB
    5    4    6   15   0.0404206947 ABAB
    4    5   15    6   0.0404206947 ABAB
    3    5   12    6   0.0389173150 ABAB
    5    3    6   12   0.0389173150 ABAB
    5    5   27    6   0.0378604004 ABAB
--------------------------------------------------------------------------------
  Converged eigenvector, normalized to one 
  SCF eigenvalue ordering used in list below. 
--------------------------------------------------------------------------------
    I    j    A    b
--------------------------------------------------------------------------------
    5    0    6    0   0.6120376410 AA  
    5    0   10    0  -0.2074875490 AA  
    5    0    8    0  -0.2002091353 AA  
    5    5    9    6   0.0674389969 ABAB
    5    5    6    9   0.0674389969 ABAB
    5    0   18    0   0.0556875566 AA  
    5    5   16    6   0.0459269602 ABAB
    5    5    6   16   0.0459269602 ABAB
    5    4    6    8  -0.0449741999 ABAB
    4    5    8    6  -0.0449741999 ABAB
    5    4    6   15   0.0404206947 ABAB
    4    5   15    6   0.0404206947 ABAB
    3    5   12    6   0.0389173150 ABAB
    5    3    6   12   0.0389173150 ABAB
    5    5   27    6   0.0378604004 ABAB
--------------------------------------------------------------------------------

  Eigenvector is saved on CCRE_2_1  

  Solution of   1 roots required   12 iterations.
  @DOEOMEE-I, right-hand eigenvectors will be computed.
  Beginning symmetry block   3.   1 roots requested.
  @DOEOMEE-I, Matrix dimension for diagonalization:     5445
  Creating initial guess for root
________________________________________________________________________
            Subspace          Eigenvalue           
 Iteration  Dimension   (a.u.)         (eV)       Overlap      Residual
________________________________________________________________________
  @NEWGES-I, Using TDA initial guess.
  1   1  0.5422167708D+00  0.1475446844D+02  0.0000000000D+00  0.3129346502D+00
  2   2  0.4115661760D+00  0.1119928501D+02  0.9572785582D+00  0.5910497580D-01
  3   3  0.4093281354D+00  0.1113838483D+02  0.9988794075D+00  0.4662598271D-01
  4   4  0.4083605437D+00  0.1111205532D+02  0.9983401065D+00  0.9580035337D-02
  5   5  0.4082283656D+00  0.1110845857D+02  0.9998955485D+00  0.5890750874D-02
  6   6  0.4081867861D+00  0.1110732714D+02  0.9999164665D+00  0.1906977257D-02
  L-O-C-K-I-N-G O-N R-O-O-T 
  7   7  0.4081862332D+00  0.1110731209D+02  0.9999983849D+00  0.6467319742D-03
  8   8  0.4081862761D+00  0.1110731326D+02  0.9999997778D+00  0.3288710351D-03
  9   9  0.4081860310D+00  0.1110730659D+02  0.9999998160D+00  0.1707407932D-03
 10  10  0.4081858259D+00  0.1110730101D+02  0.9999999398D+00  0.6300573660D-04
 11  11  0.4081858439D+00  0.1110730150D+02  0.9999999969D+00  0.3048916905D-04
 12  12  0.4081858756D+00  0.1110730236D+02  0.9999999990D+00  0.1887687900D-04
 13  13  0.4081858851D+00  0.1110730262D+02  0.9999999996D+00  0.6538619398D-05
  Converged eigenvalue:   0.408185885117342       a.u.
   Total EOMEE-CC2 electronic energy      -75.854921079497188 a.u.
  Converged eigenvector 
  SCF eigenvalue ordering used in list below. 
--------------------------------------------------------------------------------
    I    j    A    b
--------------------------------------------------------------------------------
    4    0    7    0  -0.6303996748 AA  
    4    0   11    0  -0.2016514716 AA  
    4    0   12    0  -0.1371893534 AA  
    5    4    9    7  -0.0603043320 ABAB
    4    5    7    9  -0.0603043320 ABAB
    4    4    7    8   0.0564102696 ABAB
    4    4    8    7   0.0564102696 ABAB
    4    4    7   15  -0.0521706197 ABAB
    4    4   15    7  -0.0521706197 ABAB
    5    4   16    7  -0.0415103725 ABAB
    4    5    7   16  -0.0415103725 ABAB
    4    0   19    0  -0.0411377009 AA  
    3    4   12    7  -0.0397986904 ABAB
    4    3    7   12  -0.0397986904 ABAB
    5    4   27    7  -0.0369485644 ABAB
--------------------------------------------------------------------------------
  Converged eigenvector, normalized to one 
  SCF eigenvalue ordering used in list below. 
--------------------------------------------------------------------------------
    I    j    A    b
--------------------------------------------------------------------------------
    4    0    7    0  -0.6303996748 AA  
    4    0   11    0  -0.2016514716 AA  
    4    0   12    0  -0.1371893534 AA  
    5    4    9    7  -0.0603043320 ABAB
    4    5    7    9  -0.0603043320 ABAB
    4    4    7    8   0.0564102696 ABAB
    4    4    8    7   0.0564102696 ABAB
    4    4    7   15  -0.0521706197 ABAB
    4    4   15    7  -0.0521706197 ABAB
    5    4   16    7  -0.0415103725 ABAB
    4    5    7   16  -0.0415103725 ABAB
    4    0   19    0  -0.0411377009 AA  
    3    4   12    7  -0.0397986904 ABAB
    4    3    7   12  -0.0397986904 ABAB
    5    4   27    7  -0.0369485644 ABAB
--------------------------------------------------------------------------------

  Eigenvector is saved on CCRE_3_1  

  Solution of   1 roots required   13 iterations.
  @DOEOMEE-I, right-hand eigenvectors will be computed.
  Beginning symmetry block   4.   1 roots requested.
  @DOEOMEE-I, Matrix dimension for diagonalization:     4917
  Creating initial guess for root
________________________________________________________________________
            Subspace          Eigenvalue           
 Iteration  Dimension   (a.u.)         (eV)       Overlap      Residual
________________________________________________________________________
  @NEWGES-I, Using TDA initial guess.
  1   1  0.4582031376D+00  0.1246834125D+02  0.0000000000D+00  0.3209223511D+00
  2   2  0.3252171494D+00  0.8849608542D+01  0.9553298417D+00  0.5733113342D-01
  3   3  0.3229289916D+00  0.8787344601D+01  0.9990228091D+00  0.5596653739D-01
  4   4  0.3215101999D+00  0.8748737316D+01  0.9964350171D+00  0.1052615649D-01
  5   5  0.3213340995D+00  0.8743945382D+01  0.9997284056D+00  0.4639070109D-02
  L-O-C-K-I-N-G O-N R-O-O-T 
  6   6  0.3213091787D+00  0.8743267251D+01  0.9999772091D+00  0.2668884565D-02
  7   7  0.3213070994D+00  0.8743210671D+01  0.9999975373D+00  0.4142013964D-03
  8   8  0.3213068404D+00  0.8743203624D+01  0.9999997873D+00  0.3005435837D-03
  9   9  0.3213064248D+00  0.8743192315D+01  0.9999998666D+00  0.1096998605D-03
 10  10  0.3213063968D+00  0.8743191553D+01  0.9999999810D+00  0.3110769877D-04
 11  11  0.3213064423D+00  0.8743192790D+01  0.9999999992D+00  0.1029455325D-04
 12  12  0.3213064439D+00  0.8743192834D+01  0.9999999999D+00  0.3017867295D-05
  Converged eigenvalue:   0.321306443905720       a.u.
   Total EOMEE-CC2 electronic energy      -75.941800520708810 a.u.
  Converged eigenvector 
  SCF eigenvalue ordering used in list below. 
--------------------------------------------------------------------------------
    I    j    A    b
--------------------------------------------------------------------------------
    5    0    7    0  -0.6231038688 AA  
    5    0   11    0  -0.2001886051 AA  
    5    0   12    0  -0.1692320268 AA  
    5    5    7    9  -0.0711841383 ABAB
    5    5    9    7  -0.0711841383 ABAB
    5    4    7    8   0.0483759177 ABAB
    4    5    8    7   0.0483759177 ABAB
    5    0   19    0  -0.0471129726 AA  
    5    5    7   16  -0.0464365528 ABAB
    5    5   16    7  -0.0464365528 ABAB
    5    4    7   15  -0.0416285702 ABAB
    4    5   15    7  -0.0416285702 ABAB
    3    5   12    7  -0.0404846591 ABAB
    5    3    7   12  -0.0404846591 ABAB
    5    5    7   27  -0.0399493559 ABAB
--------------------------------------------------------------------------------
  Converged eigenvector, normalized to one 
  SCF eigenvalue ordering used in list below. 
--------------------------------------------------------------------------------
    I    j    A    b
--------------------------------------------------------------------------------
    5    0    7    0  -0.6231038688 AA  
    5    0   11    0  -0.2001886051 AA  
    5    0   12    0  -0.1692320268 AA  
    5    5    7    9  -0.0711841383 ABAB
    5    5    9    7  -0.0711841383 ABAB
    5    4    7    8   0.0483759177 ABAB
    4    5    8    7   0.0483759177 ABAB
    5    0   19    0  -0.0471129726 AA  
    5    5    7   16  -0.0464365528 ABAB
    5    5   16    7  -0.0464365528 ABAB
    5    4    7   15  -0.0416285702 ABAB
    4    5   15    7  -0.0416285702 ABAB
    3    5   12    7  -0.0404846591 ABAB
    5    3    7   12  -0.0404846591 ABAB
    5    5    7   27  -0.0399493559 ABAB
--------------------------------------------------------------------------------

  Eigenvector is saved on CCRE_4_1  

  Solution of   1 roots required   12 iterations.
 @CHECKOUT-I, Total execution time (CPU/WALL):        4.90/       0.50 seconds.
--executable xvee finished with status     0 in        1.03 seconds (walltime).
  The final electronic energy is       -75.941800520708810 a.u. 
  This computation required                            8.05 seconds (walltime).
