 --invoking executable--
/home/CEISAM/blondel-a/soft/cfour2.1/cfour2.1-serial-mkl/bin/xjoda


   *************************************************************************
         <<<     CCCCCC     CCCCCC   |||     CCCCCC     CCCCCC   >>>
       <<<      CCC        CCC       |||    CCC        CCC         >>>
      <<<      CCC        CCC        |||   CCC        CCC            >>>
    <<<        CCC        CCC        |||   CCC        CCC              >>>
      <<<      CCC        CCC        |||   CCC        CCC            >>>
       <<<      CCC        CCC       |||    CCC        CCC         >>>
         <<<     CCCCCC     CCCCCC   |||     CCCCCC     CCCCCC   >>>
   *************************************************************************

     ****************************************************************
     * CFOUR Coupled-Cluster techniques for Computational Chemistry *
     ****************************************************************
 

   Department of Chemistry                Institut fuer Physikalische Chemie
   University of Florida                  Universitaet Mainz
   Gainesville, FL 32611, USA             D-55099 Mainz, Germany

   Department of Chemistry                Fakultaet fuer Chemie und Biowiss.
   Johns Hopkins University               Karlsruher Institut fuer Technologie
   Baltimore, MD 21218, USA               D-76131 Karlsruhe, Germany

   Department of Chemistry                Department of Physical Chemistry
   Southern Methodist University          Eotvos Lorand University
   Dallas, TX 75275, USA                  H-1053 Budapest, Hungary

 
                       Version 2.1
 
                     cribbar053                                        
                     Tue Mar 16 12:42:28 CET 2021                      
                     integer*8 version is running
 
********************************************************************************
*                          Input from ZMAT file                                *
********************************************************************************
Ketene -GS                                                                      
O    0.0000000000            0.0000000000           -0.1320966888               
H    0.0000000000            1.4315287786            0.9797000618               
H    0.0000000000           -1.4315287786            0.9797000618               
                                                                                
*CFOUR(COORD=CARTESIAN,UNITS=BOHR                                               
       MEMORY=250,MEM_UNIT=GB,CC_PROG=NCC                                       
       FROZEN_CORE=1                                                            
       CALC=CCSDT,BASIS=AUG-PVDZ                                                
       SCF_CONV=8,CC_CONV=7,ESTATE_CONV=5,ESTATE_MAXCYC=120                     
       EXCITE=EOMEE,ESTATE_SYM=1/1/1/1)                                         
                                                                                
********************************************************************************
    -------------------------------------------------------------------
                    CFOUR Control Parameters 
    -------------------------------------------------------------------
        External           Internal           Value            Units
          Name               Name
    -------------------------------------------------------------------
       ABCDTYPE             IABCDT         STANDARD    [  0]    ***   
       ANHARMONIC           IANHAR         OFF         [  0]    ***   
       ANH_ALGORIT          IANALG         STANDARD    [  0]    ***   
       ANH_DERIVAT          IANDER         SECOND      [  1]    ***   
       ANH_MODE             ANHMOD         VIBRATION   [  0]    ***   
       ANH_STEPSIZ          ICUBST             50000          x 10-6  
       ANH_SYMMETR          IANHSM         ABELIAN     [  0]    ***   
       AO_LADDERS           IAOLAD         SINGLEPASS  [  1]    ***   
       AV_SCF               IAVSCF         OFF         [  0]    ***   
       BASIS                IBASIS         AUG-PVDZ    [ 33]    ***   
       BOTHVECTORS          BOTHVC         OFF         [  0]    ***   
       BOX_POTENT           IPIAB          OFF         [  0]    ***   
       BREIT                IBREIT         OFF         [  0]    ***   
       BRUCK_CONV           IBRTOL          10D-  4             ***   
       BRUECKNER            IBRKNR         OFF         [  0]    ***   
       BUFFERSIZE           IBUFFS              4096            ***   
       CACHE_RECS           ICHREC             10               ***   
       CALCLEVEL            ICLLVL         CCSDT       [ 18]    ***   
       CCORBOPT             ICCORB         OFF         [  0]  x 0.01  
       CC_CONV              ICCCNV          10D-  7             ***   
       CC_EXPORDER          ICCEOR              5               ***   
       CC_EXTRAPOL          ICCEXT         DIIS        [  1]    ***   
       CC_GUESS             ICCGES         MP2         [  0]    ***   
       CC_MAXCYC            ICCCYC            100              cycles 
       CC_PROGRAM           ICCPRO         NCC         [  5]    ***   
       CHARGE               ICHRGE              0               ***   
       CHOLESKY             ICHOLE         OFF         [  0]    ***   
       CIS_CONV             ICISTL              5               ***   
       COMM_SIZE            IPSIZE            ***               ***   
       CONSTANT             ICONST         OLD         [  1]    ***   
       CONTINUUM            ICONTU         NONE        [  0]    ***   
       CONTRACTION          ICNTYP         GENERAL     [  1]    ***   
       COORDINATES          ICOORD         CARTESIAN   [  1]    ***   
       CPHF_CONVER          ICPHFT          10D- 16             ***   
       CPHF_MAXCYC          ICPHFC             64              cycles 
       CUBIC                ICUBIC         OFF         [  0]    ***   
       CURVILINEAR          ICURVY         OFF         [  0]    ***   
       DBOC                 IDBOC          OFF         [  0]    ***   
       DCT                  IDCT           OFF         [  0]    ***   
       DERIV_LEV            IDRLVL         ZERO        [  0]    ***   
       DEVMEM_SIZE          IDVMEM         *********           MByte  
       DIAG_MRCC            IEOMST          10D-  0             ***   
       DIFF_TYPE            IDIFTY         RELAXED     [  0]    ***   
       DIRECT               IDIRCT         OFF         [  0]    ***   
       DROPMO               IDRPMO      NONE         
       ECP                  IECP           OFF         [  0]    ***   
       EIGENVECTOR          IVEC                1               ***   
       EL_ANHARM            IELANH         OFF         [  0]    ***   
       EOMFOLLOW            IEOMSR         ENERGY      [  0]    ***   
       EOMIP                IEOMIP         OFF         [  0]    ***   
       EOMLEVEL             HBARFM         SAME        [  0]    ***   
       EOM_MRCC             IMRCCE         NEW         [  1]    ***   
       EOM_NONIT            EOMNON         OFF         [  0]    ***   
       EOM_NSING            IEOMSI          10D-  0             ***   
       EOM_NSTATES          IMRCCD         DAVIDSON    [  0]    ***   
       EOM_NTRIP            IEOMTR          10D-  0             ***   
       EOM_ORDER            IEXORD         ENERGY      [  0]    ***   
       EOM_PROPSTA          IEOMST              0               ***   
       ESTATE_CONV          IEXTOL          10D-  5             ***   
       ESTATE_DIAG          IEXDIG         ITERATIVE   [  0]    ***   
       ESTATE_LOCK          IESLOC         ON          [  1]    ***   
       ESTATE_MAXC          IEXMXC            120               ***   
       ESTATE_PROP          IEXPRP         OFF         [  0]    ***   
       ESTATE_SYM           IEXSYM   1,  1,  1,  1,
       EVAL_HESS            IRECAL              0            # of cyc.
       EXCITATION           IEXCIT              0               ***   
       EXCITE               IEXCIT         EOMEE       [  3]    ***   
       EXTERN_POT           IEXPOT         OFF         [  0]    ***   
       FCGRADNEW            IFCGNW         OFF         [  0]    ***   
       FC_FIELD             IFINFC              0             x 10-6  
       FD_CALTYPE           IFDCAL         GRADONLY    [  0]    ***   
       FD_PROJECT           IFDPRJ         OFF         [  1]    ***   
       FD_STEPSIZE          IDISFD              0            10-4 bohr
       FD_USEGROUP          IFDGRP         FULL        [  0]    ***   
       FILE_RECSIZ          IFLREC              4096           words  
       FINITE_PERT          IFIPER              0             x 10-6  
       FIXGEOM              IFIXGM         OFF         [  0]    ***   
       FOCK                 IFOCK          AO          [  1]    ***   
       FREQ_ALGORI          IVIALG         STANDARD    [  0]    ***   
       FROZEN_CORE          IFROCO         ON          [  1]    ***   
       GAMMA_ABCD           IGABCD         STORE       [  0]    ***   
       GAMMA_ABCI           IGABCI         STORE       [  0]    ***   
       GENBAS_1             IGNBS1              0               ***   
       GENBAS_2             IGNBS2              0               ***   
       GENBAS_3             IGNBS3              0               ***   
       GENBAS_4             IGNBS4              0               ***   
       GEO_CONV             ICONTL              5              H/bohr 
       GEO_MAXCYC           IOPTCY             50               ***   
       GEO_MAXSTEP          IMXSTP            300            millibohr
       GEO_METHOD           INR            SINGLE_POINT[  5]    ***   
       GIAO                 IGIAO          OFF         [  1]    ***   
       GIMIC                IGIMIC         OFF         [  0]    ***   
       GRID                 IGRID          OFF         [  0]    ***   
       GRID_ALGO            IGALGO         SERIAL      [  0]    ***   
       GUESS                IGUESS         MOREAD      [  0]    ***   
       HBAR                 IHBAR          ON          [  1]    ***   
       HESS_TYPE            IHESTP         SCF         [  0]    ***   
       HF2_FILE             IHF2Fl         USE         [  1]    ***   
       HFSTABILITY          ISTABL         OFF         [  0]    ***   
       INCORE               INCORE         OFF         [  0]    ***   
       INPUT_MRCC           IMRCC          ON          [  1]    ***   
       INTEGRALS            INTTYP         VMOL        [  1]    ***   
       JODA_PRINT           IJPRNT              0               ***   
       KEYWORD_OUT          IDMPKW         NO          [  0]    ***   
       LINDEP_TOL           ILINDP              8               ***   
       LINEQ_CONV           IZTACN          10D-  7           cycles  
       LINEQ_EXPOR          ILMAXD              5               ***   
       LINEQ_MAXCY          ILMAXC            100               ***   
       LINEQ_TYPE           ILTYPE         DIIS        [  1]    ***   
       LOCK_ORBOCC          ILOCOC         OFF         [  0]    ***   
       MEMORY_SIZE          IMEMSZ         *********           words  
       MEM_UNIT             IMEMU          GB          [  3]    ***   
       MRCC                 IMRCCC         OFF         [  0]    ***   
       MULTIPLICTY          IMULTP              1               ***   
       NACOUPLING           IVCOUP         OFF         [  0]    ***   
       NEGEVAL              IDIE           ABORT       [  0]    ***   
       NEWNORM              INEWNO         OFF         [  0]    ***   
       NON-HF               INONHF         OFF         [  0]    ***   
       NTOP_TAMP            ITOPT2             15               ***   
       NUC_MODEL            INUCMO         POINT       [  0]    ***   
       OCCUPATION           IOCCU   ESTIMATED BY SCF 
       OPEN-SHELL           IOPEN          SPIN-ORBITAL[  0]    ***   
       OPTVIB               IOPTVB         OFF         [  0]    ***   
       ORBITALS             IORBTP         STANDARD    [  0]    ***   
       PARALLEL             IPARAL         ON          [  1]    ***   
       PARA_INT             IPINTS         ON          [  1]    ***   
       PARA_PRINT           IPPRIN              0               ***   
       PERT_ORB             IPTORB         STANDARD    [  0]    ***   
       POINTS               IGRDFD              0               ***   
       PRINT                IPRNT               0               ***   
       PROPS                IPROPS         OFF         [  0]    ***   
       PROP_INTEGR          IINTYP         INTERNAL    [  0]    ***   
       PSI                  IPSI           OFF         [  0]    ***   
       QC_ALG               IQCALG         FLM         [  0]    ***   
       QC_LINALG            IQCLIN         TRIDIAG     [  2]    ***   
       QC_MAXCYC            IQCMAX          10D-100           cycles  
       QC_MAXSCFCY          IQCMSC          10D- 15           cycles  
       QC_RTRUST            IQCRTR          10D-  0           x 10-3  
       QC_SKIPSCF           IQCSKI         OFF         [  0]    ***   
       QC_START             IQCSTA          10D-  1             ***   
       QRHFGUESS            IQGUES         OFF         [  0]    ***   
       QUARTIC              IQUART         OFF         [  0]    ***   
       RAMAN_INT            IRAMIN         OFF         [  0]    ***   
       RAMAN_ORB            IRAMRE         UNRELAXED   [  0]    ***   
       RDO                  IRDOFM         OFF         [  0]    ***   
       REDUCE_REPR          REDREP         Ir          [  0]    ***   
       REFERENCE            IREFNC         RHF         [  0]    ***   
       RELATIVIST           IRELAT         OFF         [  0]    ***   
       RELAX_DENS           IRDENS         OFF         [  0]    ***   
       RESET_FLAGS          IRESET         OFF         [  0]    ***   
       RESTART_CC           ICCRES         OFF         [  0]    ***   
       ROT_EVEC             ROTVEC              0               ***   
       SAVE_INTS            ISVINT         OFF         [  0]    ***   
       SCALE_ON             ISTCRT              0               ***   
       SCF_CONV             ISCFCV          10D-  8             ***   
       SCF_DAMPING          IDAMP               0             x 10-3  
       SCF_EXPORDE          IRPPOR              6               ***   
       SCF_EXPSTAR          IRPPLS              8               ***   
       SCF_EXTRAPO          IRPP           ON          [  1]    ***   
       SCF_MAXCYC           ISCFCY            150              cycles 
       SCF_NOSTOP           ISCFST         OFF         [  0]    ***   
       SCF_PRINT            ISCFPR              0               ***   
       SCF_PROG             ISCFPR         SCF         [  0]    ***   
       SD_FIELD             IFINSD              0             x 10-6  
       SOPERT               IPERSO         OFF         [  0]    ***   
       SPHERICAL            IDFGHI         ON          [  1]    ***   
       SPINORBIT            ISOCAL         OFF         [  0]    ***   
       SPINROTATIO          ISRCON         OFF         [  0]    ***   
       SPIN_FLIP            ISPFLP         OFF         [  0]    ***   
       SPIN_ORBIT           ISPORB         OFF         [  0]    ***   
       SPIN_SCAL            ISCSMP         OFF         [  0]    ***   
       STEEPSCALE           ISTPSC              1000          x 10-3  
       SUBGROUP             ISUBGP         DEFAULT     [  0]    ***   
       SUBGRPAXIS           ISBXYZ         X           [  0]    ***   
       SYMMETRY             ISYM           ON          [  0]    ***   
       SYM_CHECK            ISYMCK         OVERRIDE    [  1]    ***   
       T3_EXTRAPOL          IT3EXT         OFF         [  0]    ***   
       T4_EXTRAPOL          IT4EXP         OFF         [  0]    ***   
       TAMP_SUM             IEVERY              5               ***   
       TESTSUITE            ITESTS         OFF         [  0]    ***   
       THERMOCH             ITHERM         OFF         [  0]    ***   
       TOL_CHOLESK          ITOLCH          10D-  4             ***   
       TRANGRAD             IRESRM         OFF         [  0]    ***   
       TRANS_INV            ITRAIN         USE         [  0]    ***   
       TREAT_PERT           ITREAT         SIMULTANEOUS[  0]    ***   
       TRIP_ALGORI          ITRALG         NORMAL      [  0]    ***   
       UIJ_THRESHO          IUIJTH              1               ***   
       UNITS                IUNITS         BOHR        [  1]    ***   
       UNOS                 IUNOS          OFF         [  0]    ***   
       UPDATE_HESS          IHUPDT         ON          [  1]    ***   
       VIBPHASE             ISETPH         STANDARD    [  0]    ***   
       VIBRATION            IVIB           NO          [  0]    ***   
       VIB_ALGORIT          IGEALG         STANDARD    [  0]    ***   
       VNATORB              IVNORB         OFF         [  0]    ***   
       VTRAN                IVTRAN         FULL/PARTIAL[  0]    ***   
       XFIELD               IXEFLD              0             x 10-6  
       XFORM_TOL            IXFTOL          10D- 11             ***   
       YFIELD               IYEFLD              0             x 10-6  
       ZFIELD               IZEFLD              0             x 10-6  
       ZSCALE_EXP           IZEXPS         OFF         [  0]    ***   
    -------------------------------------------------------------------
  @GETXYZ-I,     3 atoms read from ZMAT.
   Rotational constants (in cm-1): 
          9.4902686961            14.5740134783            27.2065789719
   Rotational constants (in MHz): 
     284511.1378075283        436917.9935688575        815632.8326432100
********************************************************************************
   The full molecular point group is C2v .
   The largest Abelian subgroup of the full molecular point group is C2v .
   The computational point group is C2v .
********************************************************************************


 ----------------------------------------------------------------
         Coordinates used in calculation (QCOMP) 
 ----------------------------------------------------------------
 Z-matrix   Atomic            Coordinates (in bohr)
  Symbol    Number           X              Y              Z
 ----------------------------------------------------------------
     O         8         0.00000000     0.00000000    -0.12442659
     H         1         0.00000000     1.43152878     0.98737016
     H         1         0.00000000    -1.43152878     0.98737016
 ----------------------------------------------------------------
 
   Interatomic distance matrix (Angstroms) 
 
                 O             H             H    
                [ 1]        [ 2]        [ 3]
  O    [ 1]     0.00000
  H    [ 2]     0.95916     0.00000
  H    [ 3]     0.95916     1.51506     0.00000
 rotcon2
   Rotational constants (in cm-1): 
          9.4902686961            27.2065789719            14.5740134783
   Rotational constants (in MHz): 
     284511.1378075283        815632.8326432100        436917.9935688575
  There is   1 frozen-core orbital.
  There are   41 basis functions.
 @GEOPT-W, Archive file not created for single-point calculation.
 @CHECKOUT-I, Total execution time (CPU/WALL):        0.18/       3.06 seconds.
--executable xjoda finished with status     0 in        7.11 seconds (walltime).
 --invoking executable--
/home/CEISAM/blondel-a/soft/cfour2.1/cfour2.1-serial-mkl/bin/xvmol
 SERIAL VERSION OF MOLECULE STARTED
********************************************************************************
                    INPUT FROM MOL FILE
********************************************************************************
INTGRL        1    0    1    0    0    0    0    0    0                         
         *** CFOUR Program System (Release V0.1) ***                            
Ketene -GS                                                                      
    2    2 X  Y       0.10E-08              0    0                              
   9999.00      3.00                                                            
          8.00000000    1    3    1    1    1                                   
O #1   0.000000000000000   0.000000000000000  -0.124426592697155                
   10    4                                                                      
   11720.0000000000       7.100000000000000E-004 -1.600000000000000E-004        
  0.000000000000000E+000  0.000000000000000E+000                                
   1759.00000000000       5.470000000000000E-003 -1.263000000000000E-003        
  0.000000000000000E+000  0.000000000000000E+000                                
   400.800000000000       2.783700000000000E-002 -6.267000000000000E-003        
  0.000000000000000E+000  0.000000000000000E+000                                
   113.700000000000       0.104800000000000      -2.571600000000000E-002        
  0.000000000000000E+000  0.000000000000000E+000                                
   37.0300000000000       0.283062000000000      -7.092400000000000E-002        
  0.000000000000000E+000  0.000000000000000E+000                                
   13.2700000000000       0.448719000000000      -0.165411000000000             
  0.000000000000000E+000  0.000000000000000E+000                                
   5.02500000000000       0.270952000000000      -0.116955000000000             
  0.000000000000000E+000  0.000000000000000E+000                                
   1.01300000000000       1.545800000000000E-002  0.557368000000000             
  0.000000000000000E+000  0.000000000000000E+000                                
  0.302300000000000      -2.585000000000000E-003  0.572759000000000             
   1.00000000000000       0.000000000000000E+000                                
  7.896000000000000E-002  0.000000000000000E+000  0.000000000000000E+000        
  0.000000000000000E+000   1.00000000000000                                     
    5    3                                                                      
   17.7000000000000       4.301800000000000E-002  0.000000000000000E+000        
  0.000000000000000E+000                                                        
   3.85400000000000       0.228913000000000       0.000000000000000E+000        
  0.000000000000000E+000                                                        
   1.04600000000000       0.508728000000000       0.000000000000000E+000        
  0.000000000000000E+000                                                        
  0.275300000000000       0.460531000000000        1.00000000000000             
  0.000000000000000E+000                                                        
  6.856000000000000E-002  0.000000000000000E+000  0.000000000000000E+000        
   1.00000000000000                                                             
    2    2                                                                      
   1.18500000000000        1.00000000000000       0.000000000000000E+000        
  0.332000000000000       0.000000000000000E+000   1.00000000000000             
          1.00000000    1    2    1    1                                        
H #2   0.000000000000000   1.431528778600000   0.987370157902845                
    5    3                                                                      
   13.0100000000000       1.968500000000000E-002  0.000000000000000E+000        
  0.000000000000000E+000                                                        
   1.96200000000000       0.137977000000000       0.000000000000000E+000        
  0.000000000000000E+000                                                        
  0.444600000000000       0.478148000000000       0.000000000000000E+000        
  0.000000000000000E+000                                                        
  0.122000000000000       0.501240000000000        1.00000000000000             
  0.000000000000000E+000                                                        
  2.974000000000000E-002  0.000000000000000E+000  0.000000000000000E+000        
   1.00000000000000                                                             
    2    2                                                                      
  0.727000000000000        1.00000000000000       0.000000000000000E+000        
  0.141000000000000       0.000000000000000E+000   1.00000000000000             
FINISH                                                                          
 
********************************************************************************
 ONE- AND TWO-ELECTRON INTEGRALS OVER SYMMETRY-ADAPTED AOS ARE CALCULATED.

  SPHERICAL HARMONICS ARE USED.
  
  INTEGRALS LESS THAN  0.10E-13 ARE NEGLECTED.

  NUCLEAR REPULSION ENERGY :    9.1765804707 A.U.
  @MOLECU-I, ONE ELECTRON INTEGRALS (CPU/WALL):        0.02/       0.05 SECONDS.
  @TWOEL-I,      16224 INTEGRALS OF SYMMETRY TYPE  I I I I
  @TWOEL-I,      36629 INTEGRALS OF SYMMETRY TYPE  I J I J
  @TWOEL-I,      21412 INTEGRALS OF SYMMETRY TYPE  I I J J
  @TWOEL-I,      17042 INTEGRALS OF SYMMETRY TYPE  I J K L
  @TWOEL-I, TOTAL NUMBER OF 2-E INTEGRALS      91307.
  @MOLECU-I, TWO ELECTRON INTEGRALS (CPU/WALL):        0.30/       0.09 SECONDS.
 @CHECKOUT-I, Total execution time (CPU/WALL):        0.34/       0.16 seconds.

Running with 20 threads/proc

--executable xvmol finished with status     0 in        2.24 seconds (walltime).
 --invoking executable--
/home/CEISAM/blondel-a/soft/cfour2.1/cfour2.1-serial-mkl/bin/xvmol2ja
 @GETMEM-I,  Allocated  238418 MB of main memory.
 @CHECKOUT-I, Total execution time (CPU/WALL):        0.03/       0.08 seconds.
--executable xvmol2ja finished with status     0 in        1.75 seconds (walltime).
 --invoking executable--
/home/CEISAM/blondel-a/soft/cfour2.1/cfour2.1-serial-mkl/bin/xvscf
  There are   41 functions in the AO basis.

  There are 4 irreducible representations.

       Irrep        # of functions
         1                 18
         2                  7
         3                 12
         4                  4


  Parameters for SCF calculation: 
        SCF reference function:  RHF  
  Maximum number of iterations:  150
     Full symmetry point group: C2v 
     Computational point group: C2v 
        Initial density matrix: MOREAD                 
     SCF convergence tolerance: 10**(- 8)
  DIIS convergence acceleration:  ON
          Latest start for DIIS:   8
                     DIIS order:   6

  Memory information:     103046 words required.
  Fock matrices are constructed from AO integral file.
 @GETMEM-I,  Allocated       0 MB of main memory.
  Initialization and symmetry analysis required      0.003 seconds.

  @INITGES-I, Occupancies from core Hamiltonian:

          Alpha population by irrep:   3    1    1    0
           Beta population by irrep:   3    1    1    0


 total no. of electrons in initial guess :  0.000000000000000E+000
  --------------------------------------------------------------------
  Iteration         Total Energy            Largest Density Difference
  --------------------------------------------------------------------
       0             9.176580470691922              0.0000000000D+00
   current occupation vector 
     3  1  1  0
     3  1  1  0
       1           -68.573116130471675              0.1047216244D+02
   current occupation vector 
     3  1  1  0
     3  1  1  0
       2           -66.593442879706302              0.2333412663D+02
   current occupation vector 
     3  0  2  0
     3  0  2  0
       3           -72.468770381901450              0.2334298218D+02
   current occupation vector 
     3  1  1  0
     3  1  1  0
       4           -69.116346827668849              0.2041556130D+02
   current occupation vector 
     3  0  2  0
     3  0  2  0
       5           -73.136036169151822              0.2041560402D+02
   current occupation vector 
     3  1  1  0
     3  1  1  0
       6           -69.608631660702343              0.1985429827D+02
   current occupation vector 
     3  0  2  0
     3  0  2  0
       7           -73.282417860018725              0.1985429962D+02
   current occupation vector 
     3  1  1  0
     3  1  1  0
       8           -69.727731880655369              0.1974180201D+02
   current occupation vector 
     3  0  2  0
     3  0  2  0
       9           -75.855109352475139              0.1974160038D+02
   current occupation vector 
     3  1  1  0
     3  1  1  0
      10           -76.040190612176545              0.4671496520D+00
   current occupation vector 
     3  1  1  0
     3  1  1  0
      11           -76.041259497697936              0.3916172181D-01
   current occupation vector 
     3  1  1  0
     3  1  1  0
      12           -76.041300973354680              0.1125783142D-01
   current occupation vector 
     3  1  1  0
     3  1  1  0
      13           -76.041301859467282              0.1265085137D-02
   current occupation vector 
     3  1  1  0
     3  1  1  0
      14           -76.041302022182279              0.4717313272D-03
   current occupation vector 
     3  1  1  0
     3  1  1  0
      15           -76.041302029572691              0.1654089245D-03
   current occupation vector 
     3  1  1  0
     3  1  1  0
      16           -76.041302029645223              0.1350722889D-04
   current occupation vector 
     3  1  1  0
     3  1  1  0
      17           -76.041302029648762              0.3026676765D-05
   current occupation vector 
     3  1  1  0
     3  1  1  0
      18           -76.041302029648790              0.5903693823D-06
   current occupation vector 
     3  1  1  0
     3  1  1  0
      19           -76.041302029649046              0.7883979136D-07
   current occupation vector 
     3  1  1  0
     3  1  1  0
      20           -76.041302029648833              0.1745686773D-07
   current occupation vector 
     3  1  1  0
     3  1  1  0

  SCF has converged.

 Density matrix saved to file den.dat
 total electron number:   10.0000000000000     
     E(SCF)=       -76.041302029648790              0.2374591856D-08

  Eigenvector printing suppressed.

 @PUTMOS-I, Writing converged MOs to NEWMOS. 
 @PUTMOS-I, Symmetry   1 Full Blocks  4 Partial Blocksize   2
 @PUTMOS-I, Symmetry   2 Full Blocks  1 Partial Blocksize   3
 @PUTMOS-I, Symmetry   3 Full Blocks  3 Partial Blocksize   0
 @PUTMOS-I, Symmetry   4 Full Blocks  1 Partial Blocksize   0
 @PUTFOCK-I, Writing converged Fock matrix to NEWFOCK. 
 @PUTFOCK-I, Symmetry   1 Full Blocks  4 Partial Blocksize   2
 @PUTFOCK-I, Symmetry   2 Full Blocks  1 Partial Blocksize   3
 @PUTFOCK-I, Symmetry   3 Full Blocks  3 Partial Blocksize   0
 @PUTFOCK-I, Symmetry   4 Full Blocks  1 Partial Blocksize   0


 
  ORBITAL EIGENVALUES (ALPHA)  (1H = 27.2113834 eV)

       MO #        E(hartree)               E(eV)           FULLSYM    COMPSYM
       ----   --------------------   --------------------   -------   ---------
    1     1         -20.5776679386        -559.9468117540      A1        A1 (1)
    2     2          -1.3557727360         -36.8924517224      A1        A1 (1)
    3    26          -0.7178802182         -19.5345138524      B2        B2 (3)
    4     3          -0.5856326711         -15.9358751448      A1        A1 (1)
    5    19          -0.5093340082         -13.8596829754      B1        B1 (2)
  +++++++++++++++++++++++++++++++++++++++++++++++++++++++++++++++++++++++++++++
    6     4           0.0353896284           0.9630007462      A1        A1 (1)
    7    27           0.0579339855           1.5764638926      B2        B2 (3)
    8     5           0.1739981373           4.7347300261      A1        A1 (1)
    9    20           0.1967907384           5.3549482325      B1        B1 (2)
   10     6           0.2225382253           6.0555729693      A1        A1 (1)
   11    28           0.2315509808           6.3008225163      B2        B2 (3)
   12    29           0.2901553727           7.8955290931      B2        B2 (3)
   13     7           0.3314779704           9.0199741424      A1        A1 (1)
   14    38           0.3857639446          10.4971705988      A2        A2 (4)
   15     8           0.4034694792          10.9789626898      A1        A1 (1)
   16    21           0.4332655995          11.7897563408      B1        B1 (2)
   17    30           0.5391068154          14.6698422486      B2        B2 (3)
   18     9           0.6481168937          17.6361572822      A1        A1 (1)
   19    31           0.6581808697          17.9100119917      B2        B2 (3)
   20    32           0.8105238904          22.0554763364      B2        B2 (3)
   21    10           0.9297955580          25.3010234118      A1        A1 (1)
   22    22           1.1013266726          29.9686223355      B1        B1 (2)
   23    11           1.1156110553          30.3573201520      A1        A1 (1)
   24    39           1.1487154311          31.2581360130      A2        A2 (4)
   25    12           1.3063331298          35.5471316423      A1        A1 (1)
   26    33           1.4662477212          39.8986289022      B2        B2 (3)
   27    23           1.4824005882          40.3381707576      B1        B1 (2)
   28    13           1.5833765774          43.0858671149      A1        A1 (1)
   29    34           2.0026632078          54.4952363694      B2        B2 (3)
   30    40           2.0100149063          54.6952862544      A2        A2 (4)
   31    24           2.1084332442          57.3733853811      B1        B1 (2)
   32    14           2.3655559212          64.3700491255      A1        A1 (1)
   33    35           2.4792297253          67.4632705922      B2        B2 (3)
   34    15           2.6244910882          71.4160332302      A1        A1 (1)
   35    36           2.7141729449          73.8564006177      B2        B2 (3)
   36    16           2.9675914011          80.7522673904      A1        A1 (1)
   37    25           3.6730376012          99.9484344089      B1        B1 (2)
   38    17           3.6901875081         100.4151071012      A1        A1 (1)
   39    41           3.7025723506         100.7521157983      A2        A2 (4)
   40    18           4.0237559712         109.4919664408      A1        A1 (1)
   41    37           4.3055317345         117.1594747683      B2        B2 (3)


  VSCF finished.

 @CHECKOUT-I, Total execution time (CPU/WALL):        0.09/       2.41 seconds.
--executable xvscf finished with status     0 in        4.86 seconds (walltime).
 --invoking executable--
/home/CEISAM/blondel-a/soft/cfour2.1/cfour2.1-serial-mkl/bin/xvtran
 @GETMEM-I,  Allocated  238418 MB of main memory.
  Full RHF integral transformation
  The following   1 MOs will be dropped:
    1
  There are  40 active molecular orbitals.
  Transformation of IIII integrals :
  1 pass through the AO integral file was required.
       16224 AO integrals were read.
       15323 MO integrals were written to HF2.
  Transformation of IIJJ integrals :
  1 pass through the AO integral file was required.
       21412 AO integrals were read.
       20992 MO integrals were written to HF2.
  Transformation of IJIJ integrals :
  1 pass through the AO integral file was required.
       36629 AO integrals were read.
       35548 MO integrals were written to HF2.
  Transformation of IJKL integrals :
  1 pass through the AO integral file was required.
       17042 AO integrals were read.
       17136 MO integrals were written to HF2.
  Summary of active molecular orbitals: 
------------------------------------------------------------------------
 
  Index      Eigenvalue    Symmetry    Index      Eigenvalue    Symmetry
------------------------------------------------------------------------
     1        -1.3557727        1        21         0.4332656        2
     2        -0.5856327        1        22         1.1013267        2
     3        -0.5093340        2        23         1.4824006        2
     4        -0.7178802        3        24         2.1084332        2
     5         0.0353896        1        25         3.6730376        2
     6         0.1739981        1        26         0.0579340        3
     7         0.2225382        1        27         0.2315510        3
     8         0.3314780        1        28         0.2901554        3
     9         0.4034695        1        29         0.5391068        3
    10         0.6481169        1        30         0.6581809        3
    11         0.9297956        1        31         0.8105239        3
    12         1.1156111        1        32         1.4662477        3
    13         1.3063331        1        33         2.0026632        3
    14         1.5833766        1        34         2.4792297        3
    15         2.3655559        1        35         2.7141729        3
    16         2.6244911        1        36         4.3055317        3
    17         2.9675914        1        37         0.3857639        4
    18         3.6901875        1        38         1.1487154        4
    19         4.0237560        1        39         2.0100149        4
    20         0.1967907        2        40         3.7025724        4
------------------------------------------------------------------------
  -1.35577273599292      -0.585632671096919      -0.509334008185752     
 -0.717880218189002       3.538962838024078E-002  0.173998137341560     
  0.222538225281769       0.331477970444764       0.403469479239575     
  0.648116893688746       0.929795557979128        1.11561105533548     
   1.30633312977039        1.58337657742652        2.36555592118492     
   2.62449108817589        2.96759140111860        3.69018750811591     
   4.02375597121569       0.196790738413751       0.433265599456515     
   1.10132667255204        1.48240058819066        2.10843324419557     
   3.67303760120137       5.793398554559547E-002  0.231550980840060     
  0.290155372735756       0.539106815443500       0.658180869690420     
  0.810523890396444        1.46624772124751        2.00266320783286     
   2.47922972531356        2.71417294490559        4.30553173449740     
  0.385763944614425        1.14871543109363        2.01001490627561     
   3.70257235059703     
 @CHECKOUT-I, Total execution time (CPU/WALL):        0.07/       0.60 seconds.
--executable xvtran finished with status     0 in        4.13 seconds (walltime).
 --invoking executable--
/home/CEISAM/blondel-a/soft/cfour2.1/cfour2.1-serial-mkl/bin/xintprc
 @GETMEM-I,  Allocated  238418 MB of main memory.
  @GMOIAA-I, Processing MO integrals for spin case AA.
  @GMOIAA-I, Generation of integral list completed.
                      TYPE                NUMBER
                      ----               --------
                      PPPP                 58654
                      PPPH                 25252
                      PPHH                  2810
                      PHPH                  1857
                      PHHH                   404
                      HHHH                    22

                     TOTAL                 88999

  @FORMT2-I, Second-order MP correlation energies:
            ------------------------------------------------
            E(SCF)                  =    -76.041302029649 a.u.
            E2(AA)                  =     -0.027930030921 a.u.
            E2(AB)                  =     -0.163661286995 a.u.
            E2(TOT)                 =     -0.219521348837 a.u.
            Total MP2 energy        =    -76.260823378486 a.u.
            ------------------------------------------------
   Largest T2 amplitudes for spin case AB:
       _       _                 _       _                 _       _
   i   j   a   b             i   j   a   b             i   j   a   b
-----------------------------------------------------------------------------
[  3   3  23  23]-0.03292 [  4   4  31  31]-0.02213 [  2   2  14  14]-0.01915
[  2   2  31  31]-0.01804 [  3   2  23  14]-0.01743 [  2   3  14  23]-0.01743
[  4   4  28  28]-0.01742 [  3   3  20  20]-0.01708 [  2   2   9   9]-0.01652
[  3   3  20  23]-0.01627 [  3   3  23  20]-0.01627 [  2   2  12  12]-0.01598
[  4   4  31  28]-0.01577 [  4   4  28  31]-0.01577 [  3   3  22  22]-0.01509
-----------------------------------------------------------------------------
   Norm of T2AB vector (     5476 symmetry allowed elements):  0.2090880187.
-----------------------------------------------------------------------------
 @CHECKOUT-I, Total execution time (CPU/WALL):        0.10/       0.16 seconds.
--executable xintprc finished with status     0 in        3.94 seconds (walltime).
  calling xncc 
 --invoking executable--
/home/CEISAM/blondel-a/soft/cfour2.1/cfour2.1-serial-mkl/bin/xncc
 @GETMEM-I,  Allocated       7 MB of main memory.

Running with 20 threads/proc

Following the lowest-energy eigenvector.
Using discrete restarting.
Using an orthogonal subspace.
Orthogonalizing against previous roots.
Using Modified Gram-Schmidt orthogonalization.

Using DIIS to accelerate the convergence of T1 and T2
Using immediate high-order contributions
Performing 3 CCSD sub-iterations
Damping factor for T3: 0.000000
Damping factor for T4: 0.000000

Transposes are coarse-threaded

Memory limit:                232.831 GiB
Minimum memory requirement:    1.904 MiB
Compromise memory amount:    104.307 MiB
Optimal memory requirement:  112.468 MiB

List              Location   Size        Cached Hunks Est. Disk I/O
----------------- ---------- ----------- ------ ----- -------------

           HR_DAV      470:1    1.306 MiB    Yes     -   286.743 MiB
                R        471  163.125 KiB    Yes     -    14.337 MiB
            R_DAV      470:0    1.306 MiB    Yes     -   555.963 MiB
           T_DIIS       70:0  215.742 KiB    Yes     -     3.792 MiB
           Z_DIIS       70:1  215.742 KiB    Yes     -     6.321 MiB
          <AI|bj>         18   42.781 KiB    Yes     -     6.777 MiB
          <Ab|Cd>        233    3.331 MiB    Yes     -     7.469 GiB
          <Ab|Ci>         30  381.344 KiB    Yes     -   728.054 MiB
          <Ab|Ij>         16   42.781 KiB    Yes     -   121.200 MiB
          <Ai|Bj>         25   42.781 KiB    Yes     -     5.765 MiB
          <Aj|bI>         21   42.781 KiB     No     -         0   B
          <Ij|Ka>         10    4.844 KiB    Yes     -     9.281 MiB
          <Ij|Kl>         13      576   B    Yes     -    34.312 KiB
           DD(AI)      448:8      376   B    Yes     -    18.000 KiB
        DD(Ab,Ij)        450   42.781 KiB    Yes     -     2.531 MiB
            F(EA)       92:0    3.109 KiB    Yes     -     2.699 MiB
            F(EM)       93:0      376   B    Yes     -   227.656 KiB
            F(MI)       91:0       48   B    Yes     -    51.516 KiB
           HR(AI)      490:2      376   B    Yes     -     1.219 MiB
        HR(Ab,Ij)        463   42.781 KiB    Yes     -   270.527 MiB
            Q(AI)      190:2      376   B    Yes     -    66.094 KiB
         Q(Ab,Ij)         50   42.781 KiB    Yes     -    22.560 MiB
            R(AI)      490:0      376   B    Yes     -     3.433 MiB
         R(Ab,Ij)        446   42.781 KiB    Yes     -   539.308 MiB
            T(AI)       90:0      376   B    Yes     -   666.078 KiB
         T(Ab,Ij)         46   42.781 KiB    Yes     -    86.356 MiB
         W(Mn,Ij)         53      576   B    Yes     -   397.688 KiB
        W~(Ab,Ej)        130  381.344 KiB    Yes     -   525.456 MiB
        W~(EM,bj)         56   42.781 KiB    Yes     -    52.390 MiB
        W~(Em,Bj)         58   42.781 KiB    Yes     -    64.297 MiB
        W~(Ij,Mb)        110    4.844 KiB    Yes     -     3.425 MiB
       W~~(Ab,Ej)        169  381.344 KiB    Yes     -    84.164 MiB
       W~~(EM,bj)         76   42.781 KiB    Yes     -     5.348 MiB
       W~~(Em,Bj)         78   42.781 KiB    Yes     -     5.348 MiB
       W~~(Ij,Mb)        165    4.844 KiB    Yes     -     1.069 MiB
         X(Ab,Ef)        433    3.331 MiB    Yes     -     4.693 GiB
         X(Ab,Ej)        430  381.344 KiB    Yes     -   662.080 MiB
         X(Ab,Ij)        416   42.781 KiB     No     -         0   B
            X(EA)      492:0    3.109 KiB    Yes     -     1.631 MiB
            X(EM)      493:0      376   B    Yes     -   101.250 KiB
         X(EM,bj)        418   42.781 KiB    Yes     -    26.104 MiB
         X(Ef,Am)        469  381.344 KiB     No     -         0   B
         X(Em,Bj)        425   42.781 KiB    Yes     -    35.596 MiB
         X(Ij,Mb)        410    4.844 KiB    Yes     -     6.592 MiB
            X(MI)      491:0       48   B    Yes     -    24.375 KiB
         X(Mn,Ie)        465    4.844 KiB     No     -         0   B
         X(Mn,Ij)        413      576   B    Yes     -   270.000 KiB
            Z(AI)       90:2      376   B    Yes     -   170.742 KiB
         Z(Ab,Ij)         63   42.781 KiB    Yes     -    19.427 MiB
      HR(abc,ijk)    HR3FILE    1.457 MiB    Yes     1     3.671 GiB
            HR3_1      HR3_1    1.457 MiB    Yes     1     2.275 GiB
           HR3_10     HR3_10    1.457 MiB    Yes     1   529.664 MiB
           HR3_11     HR3_11    1.457 MiB    Yes     1   142.383 MiB
           HR3_12     HR3_12    1.457 MiB    Yes     1   142.383 MiB
           HR3_13     HR3_13    1.457 MiB    Yes     1   142.383 MiB
           HR3_14     HR3_14    1.457 MiB    Yes     1   142.383 MiB
           HR3_15     HR3_15    1.457 MiB    Yes     1   142.383 MiB
           HR3_16     HR3_16    1.457 MiB    Yes     1   142.383 MiB
           HR3_17     HR3_17    1.457 MiB    Yes     1   142.383 MiB
           HR3_18     HR3_18    1.457 MiB    Yes     1   142.383 MiB
           HR3_19     HR3_19    1.457 MiB    Yes     1   142.383 MiB
            HR3_2      HR3_2    1.457 MiB    Yes     1   541.055 MiB
           HR3_20     HR3_20    1.457 MiB    Yes     1   142.383 MiB
           HR3_21     HR3_21    1.457 MiB    Yes     1   233.508 MiB
           HR3_22     HR3_22    1.457 MiB    Yes     1   233.508 MiB
           HR3_23     HR3_23    1.457 MiB    Yes     1   233.508 MiB
           HR3_24     HR3_24    1.457 MiB    Yes     1   233.508 MiB
           HR3_25     HR3_25    1.457 MiB    Yes     1   233.508 MiB
           HR3_26     HR3_26    1.457 MiB    Yes     1   233.508 MiB
           HR3_27     HR3_27    1.457 MiB    Yes     1   233.508 MiB
           HR3_28     HR3_28    1.457 MiB    Yes     1   233.508 MiB
           HR3_29     HR3_29    1.457 MiB    Yes     1   233.508 MiB
            HR3_3      HR3_3    1.457 MiB    Yes     1   546.750 MiB
           HR3_30     HR3_30    1.457 MiB    Yes     1   233.508 MiB
           HR3_31     HR3_31    1.457 MiB     No     1         0   B
            HR3_4      HR3_4    1.457 MiB    Yes     1   552.445 MiB
            HR3_5      HR3_5    1.457 MiB    Yes     1   558.141 MiB
            HR3_6      HR3_6    1.457 MiB    Yes     1   563.836 MiB
            HR3_7      HR3_7    1.457 MiB    Yes     1   569.531 MiB
            HR3_8      HR3_8    1.457 MiB    Yes     1   575.227 MiB
            HR3_9      HR3_9    1.457 MiB    Yes     1   580.922 MiB
       R(abc,ijk)     R3FILE    1.457 MiB    Yes     1    12.014 GiB
             R3_1       R3_1    1.457 MiB    Yes     1     4.388 GiB
            R3_10      R3_10    1.457 MiB    Yes     1     1.046 GiB
            R3_11      R3_11    1.457 MiB    Yes     1   398.672 MiB
            R3_12      R3_12    1.457 MiB    Yes     1   398.672 MiB
            R3_13      R3_13    1.457 MiB    Yes     1   398.672 MiB
            R3_14      R3_14    1.457 MiB    Yes     1   398.672 MiB
            R3_15      R3_15    1.457 MiB    Yes     1   398.672 MiB
            R3_16      R3_16    1.457 MiB    Yes     1   398.672 MiB
            R3_17      R3_17    1.457 MiB    Yes     1   398.672 MiB
            R3_18      R3_18    1.457 MiB    Yes     1   398.672 MiB
            R3_19      R3_19    1.457 MiB    Yes     1   398.672 MiB
           R3_1_1     R3_1_1    1.457 MiB    Yes     1   109.254 MiB
             R3_2       R3_2    1.457 MiB    Yes     1     1.057 GiB
            R3_20      R3_20    1.457 MiB    Yes     1   227.812 MiB
            R3_21      R3_21    1.457 MiB    Yes     1   233.508 MiB
            R3_22      R3_22    1.457 MiB    Yes     1   233.508 MiB
            R3_23      R3_23    1.457 MiB    Yes     1   233.508 MiB
            R3_24      R3_24    1.457 MiB    Yes     1   233.508 MiB
            R3_25      R3_25    1.457 MiB    Yes     1   233.508 MiB
            R3_26      R3_26    1.457 MiB    Yes     1   233.508 MiB
            R3_27      R3_27    1.457 MiB    Yes     1   233.508 MiB
            R3_28      R3_28    1.457 MiB    Yes     1   233.508 MiB
            R3_29      R3_29    1.457 MiB    Yes     1   233.508 MiB
           R3_2_1     R3_2_1    1.394 MiB    Yes     1   104.567 MiB
             R3_3       R3_3    1.457 MiB    Yes     1     1.062 GiB
            R3_30      R3_30    1.457 MiB    Yes     1   233.508 MiB
            R3_31      R3_31    1.457 MiB     No     1         0   B
           R3_3_1     R3_3_1    1.453 MiB    Yes     1   109.007 MiB
             R3_4       R3_4    1.457 MiB    Yes     1     1.068 GiB
           R3_4_1     R3_4_1    1.391 MiB    Yes     1   104.320 MiB
             R3_5       R3_5    1.457 MiB    Yes     1     1.073 GiB
             R3_6       R3_6    1.457 MiB    Yes     1     1.079 GiB
             R3_7       R3_7    1.457 MiB    Yes     1     1.085 GiB
             R3_8       R3_8    1.457 MiB    Yes     1     1.090 GiB
             R3_9       R3_9    1.457 MiB    Yes     1     1.096 GiB
       T(abc,ijk)     T3FILE    1.457 MiB    Yes     1   154.413 MiB
       Z(abc,ijk)     Z3FILE    1.457 MiB    Yes     1    65.553 MiB

Simulation and memory analysis took 1.451 seconds

MP2 correlation energy:  -0.219521348837493

Non-iterative calculation of MP2 took 0.004 cpu seconds and 0.000 walltime seconds at 1.040 Gflops/sec

Total MP2 energy: -76.260823378486279

Beginning iterative solution of CCSDT equations:

It.  Correlation Energy T1 Residual T2 Residual T3 Residual CPU Time (s) Walltime (s)
-------------------------------------------------------------------------------------
  1  -0.232247373807265 3.04521e-03 3.00901e-03 1.06520e-03        2.925        0.148
  2  -0.232602684306893 1.78403e-04 2.45183e-04 9.23720e-05        3.642        0.183
  3  -0.232712632491711 5.73584e-05 7.14126e-05 5.02361e-05        7.030        0.829
  4  -0.232729002975777 7.42501e-06 6.84284e-06 6.85812e-06        3.857        0.193
  5  -0.232733998761987 2.84376e-06 3.31635e-06 4.27787e-06        3.752        0.188

   A    I                     A    I                     A    I                  
-------------------------- -------------------------- -------------------------- 
   9    5 -0.0192660578765    6    4 -0.0041715395539   28    4  0.0031662965209 
  16    5 -0.0140320884930   12    3 -0.0040328709520   15    2  0.0027708707814 
   8    4  0.0110523594025   34    4 -0.0037263793079   11    3 -0.0023818032445 
  15    4 -0.0105910532464   10    2  0.0036797124108    7    3 -0.0022249020437 
  33    3  0.0071627242442   34    2 -0.0034882037993   25    2 -0.0020876185549 

   A    B    I    J                     A    B    I    J                  
------------------------------------ ------------------------------------ 
  27   27    5    5 -0.0348139307973   15   15    4    4 -0.0190244084004 
  20   20    3    3 -0.0266539275830    9   27    5    5 -0.0186353486074 
  20   20    4    4 -0.0218113574246   27    9    5    5 -0.0186353486074 
  12   12    3    3 -0.0207844927573   23   23    4    4 -0.0174543261285 
  28   28    4    4 -0.0205407981062   27   28    5    4 -0.0170408111380 
   9    9    5    5 -0.0203832918562   28   27    4    5 -0.0170408111380 
  20   12    3    3 -0.0195753930110   16   27    5    5 -0.0165332299474 
  12   20    3    3 -0.0195753930110 

It.  Correlation Energy T1 Residual T2 Residual T3 Residual CPU Time (s) Walltime (s)
-------------------------------------------------------------------------------------
  6  -0.232734878414855 4.85387e-07 6.92113e-07 1.09503e-06        3.527        0.177
  7  -0.232735218787813 2.18196e-07 4.81867e-07 5.57761e-07        3.375        0.169
  8  -0.232735278951117 4.41186e-08 1.24406e-07 2.71855e-07        3.360        0.168
  9  -0.232735308861799 2.06452e-08 9.03086e-08 1.38216e-07        3.369        0.169

CCSDT iterations converged in 9 cycles and 2.225 seconds (0.247 s/it.) at 2.597 Gflops/sec

Total CCSDT energy: -76.274037338510595

             _
Formation of H took 0.035 seconds at 1.424 Gflops/sec

Searching for 1 roots in irrep 1

EOMEE-CCSD guess vector:

   A    I                  
-------------------------- 
   6    4  1.0000000000000 

Beginning iterative solution of EOMEE-CCSDT equations:

It.  Correlation Energy R1 Residual R2 Residual R3 Residual CPU Time (s) Walltime (s)
-------------------------------------------------------------------------------------
  1   0.516870547867099 3.69517e-02 7.67605e-02 3.64523e-03        5.186        0.260
  2   0.411375522592762 7.59994e-02 2.74049e-02 5.95078e-03        8.853        1.274
  3   0.380694236480819 1.97476e-02 9.12669e-03 3.92633e-03        5.629        0.282
  4   0.376993800308090 2.25660e-02 4.96548e-03 5.84226e-03        5.620        0.282
  5   0.366465188190231 4.50809e-03 4.89562e-03 2.48301e-03        5.852        0.293
  6   0.363742516560557 3.91881e-03 2.35626e-03 1.32629e-03        6.020        0.302
  7   0.364151161692817 2.95842e-03 2.06870e-03 6.07099e-04        6.190        0.310
  8   0.364230196306105 2.24230e-03 1.28096e-03 3.70491e-04        6.504        0.326
  9   0.363917969862762 1.34165e-03 8.35116e-04 2.24496e-04       11.146        0.593
 10   0.363840237706573 6.95285e-04 5.02895e-04 1.71079e-04        6.865        0.344
 11   0.363954676781516 3.41644e-04 3.36404e-04 8.63251e-05        7.153        0.359
Locking on root: 0.363979005333620
 12   0.363979005333620 2.04730e-04 2.21213e-04 5.83433e-05        7.405        0.371
 13   0.363947101231692 8.96027e-05 1.17235e-04 3.04466e-05        8.105        0.406
 14   0.363936609353634 2.64585e-05 4.92458e-05 1.14635e-05        7.794        0.391
 15   0.363943373805153 1.26795e-05 1.97824e-05 4.56944e-06        7.904        0.396
 16   0.363945039578817 9.07065e-06 7.78242e-06 2.06166e-06        8.819        0.442

EOMEE-CCSDT iterations converged in 16 cycles and 6.632 seconds (0.414 s/it.) at 3.242 Gflops/sec

EOMEE-CCSDT excitation energy:   0.363945039578809 (  9.903448008507143 eV)
Total EOMEE-CCSDT energy:      -75.910092298931787

Converged root:

   A    I                     A    I                     A    I                  
-------------------------- -------------------------- -------------------------- 
   6    4  0.5920319710250   16    5 -0.0314250018860   12    3 -0.0120634833814 
  10    4 -0.2462293946022   13    4  0.0292848533828   20    3 -0.0107213124713 
   8    4 -0.1778572473607    6    2 -0.0232163683466   27    5 -0.0104298382993 
   9    5 -0.0929896807061   15    4  0.0160594351326   21    4 -0.0102589213896 
  18    4  0.0638539152889   10    2  0.0160277116495   25    4 -0.0081963743409 

   A    B    I    J                     A    B    I    J                  
------------------------------------ ------------------------------------ 
   8    6    4    4 -0.0577532523226   16    6    5    4  0.0367829131625 
   6    8    4    4 -0.0577532523226    6   16    4    5  0.0367829131625 
  15    6    4    4  0.0540900070280    6    6    4    4  0.0343527572819 
   6   15    4    4  0.0540900070280   27    6    5    4  0.0309021141334 
   9    6    5    4  0.0477528575864    6   27    4    5  0.0309021141334 
   6    9    4    5  0.0477528575864   19    6    3    4  0.0290326760899 
  12    6    3    4  0.0377642805064    6   19    4    3  0.0290326760899 
   6   12    4    3  0.0377642805064 

Searching for 1 roots in irrep 2

EOMEE-CCSD guess vector:

   A    I                  
-------------------------- 
   6    5  1.0000000000000 

Beginning iterative solution of EOMEE-CCSDT equations:

It.  Correlation Energy R1 Residual R2 Residual R3 Residual CPU Time (s) Walltime (s)
-------------------------------------------------------------------------------------
  1   0.434884491042338 3.66296e-02 8.89200e-02 2.41655e-03        4.751        0.238
  2   0.326213652397057 7.35647e-02 3.59407e-02 5.26941e-03        4.982        0.250
  3   0.293175955409843 1.87049e-02 1.27235e-02 4.09473e-03        5.348        0.268
  4   0.289039702347901 2.22636e-02 6.34481e-03 5.74485e-03        5.552        0.278
  5   0.278094195468077 4.68891e-03 6.01576e-03 2.17982e-03        5.634        0.282
  6   0.275208252970762 1.99122e-03 1.59578e-03 1.05752e-03        5.834        0.292
  7   0.275614447181777 1.24638e-03 9.41761e-04 3.35812e-04        6.065        0.304
  8   0.275674533716302 6.39319e-04 5.35271e-04 1.99547e-04        6.633        0.332
  9   0.275512234786438 3.79121e-04 2.61918e-04 9.37517e-05        6.428        0.322
Locking on root: 0.275487899421879
 10   0.275487899421879 1.78556e-04 1.07200e-04 3.72486e-05        6.889        0.345
 11   0.275521047353178 1.04369e-04 4.46076e-05 1.70220e-05        7.117        0.357
 12   0.275530708136736 4.14031e-05 2.41981e-05 9.68067e-06        7.168        0.359
 13   0.275523949502077 2.09963e-05 1.64110e-05 6.66907e-06        7.703        0.386
 14   0.275522396899498 1.03124e-05 7.91662e-06 3.48041e-06        7.587        0.380
 15   0.275524099149672 4.09259e-06 2.80339e-06 1.17858e-06        7.766        0.389

EOMEE-CCSDT iterations converged in 15 cycles and 4.785 seconds (0.319 s/it.) at 3.883 Gflops/sec

EOMEE-CCSDT excitation energy:   0.275524099149678 (  7.497391897901493 eV)
Total EOMEE-CCSDT energy:      -75.998513239360918

Converged root:

   A    I                     A    I                     A    I                  
-------------------------- -------------------------- -------------------------- 
   6    5  0.5896498515959   13    5  0.0355618122877   34    5 -0.0052496493559 
  10    5 -0.2372744119687   25    5 -0.0168536342979    9    2  0.0050551512478 
   8    5 -0.2171889152779   21    5 -0.0113820687050   40    5  0.0034951537508 
  18    5  0.0704763191370    9    4 -0.0066263773830   16    2  0.0034607365239 
  15    5  0.0391389912564   23    5 -0.0056934823039   14    3  0.0031660378959 

   A    B    I    J                     A    B    I    J                  
------------------------------------ ------------------------------------ 
   9    6    5    5  0.0653674154443   12    6    3    5  0.0387079075645 
   6    9    5    5  0.0653674154443    6   12    5    3  0.0387079075645 
  16    6    5    5  0.0470676469788   15    6    4    5  0.0381660132350 
   6   16    5    5  0.0470676469788    6   15    5    4  0.0381660132350 
   6    8    5    4 -0.0424476561214   19    6    3    5  0.0303246194556 
   8    6    4    5 -0.0424476561214    6   19    5    3  0.0303246194556 
  27    6    5    5  0.0391205220337   11    6    3    5  0.0297483551154 
   6   27    5    5  0.0391205220337 

Searching for 1 roots in irrep 3

EOMEE-CCSD guess vector:

   A    I                  
-------------------------- 
   7    4  1.0000000000000 

Beginning iterative solution of EOMEE-CCSDT equations:

It.  Correlation Energy R1 Residual R2 Residual R3 Residual CPU Time (s) Walltime (s)
-------------------------------------------------------------------------------------
  1   0.568328222920786 2.84512e-02 7.70378e-02 3.95962e-03        4.793        0.240
  2   0.465650699826581 6.37925e-02 2.78985e-02 5.88546e-03        5.050        0.253
  3   0.440993572794071 1.95525e-02 7.45903e-03 4.59462e-03        5.268        0.264
  4   0.440599669471334 2.35023e-02 4.43485e-03 5.38575e-03        5.487        0.275
  5   0.431398210720848 7.55696e-03 5.32505e-03 3.18945e-03        5.700        0.286
  6   0.428142463765879 3.04768e-03 2.39185e-03 1.68519e-03        5.892        0.295
  7   0.428670757152033 2.26259e-03 1.82334e-03 5.30166e-04        6.328        0.317
  8   0.428825430948520 1.35136e-03 9.19139e-04 3.92382e-04        6.376        0.320
  9   0.428578895791326 7.79897e-04 5.80700e-04 1.52267e-04        6.504        0.326
 10   0.428476895487004 3.61102e-04 3.54843e-04 9.70946e-05        6.755        0.339
 11   0.428550931467091 1.33902e-04 2.14747e-04 5.30657e-05        6.965        0.349
Locking on root: 0.428578627149465
 12   0.428578627149465 9.26742e-05 7.76220e-05 2.83550e-05        7.201        0.361
 13   0.428565792947428 7.44789e-05 3.98861e-05 9.74183e-06        7.406        0.371
 14   0.428555836795581 5.02641e-05 1.52153e-05 5.16110e-06        7.624        0.382
 15   0.428560247710114 2.68037e-05 1.35380e-05 4.19246e-06        7.799        0.391
 16   0.428563102342372 1.08961e-05 1.02001e-05 3.69259e-06        8.042        0.403
 17   0.428561020433115 3.62617e-06 2.73452e-06 1.63438e-06        8.298        0.416

EOMEE-CCSDT iterations converged in 17 cycles and 5.589 seconds (0.329 s/it.) at 4.039 Gflops/sec

EOMEE-CCSDT excitation energy:   0.428561020433122 ( 11.661738237300918 eV)
Total EOMEE-CCSDT energy:      -75.845476318077473

Converged root:

   A    I                     A    I                     A    I                  
-------------------------- -------------------------- -------------------------- 
   7    4  0.6076264138563   17    4  0.0225908835404   21    3  0.0085747298288 
  11    4  0.2329491521169    7    2 -0.0195059245655   13    3 -0.0081219297440 
  12    4  0.1743781132994   20    4  0.0193933309208   11    2 -0.0070949810108 
  19    4  0.0553653561291   26    4  0.0181712883717   18    3 -0.0057047626094 
  14    5 -0.0246216578025   24    5  0.0089692576516    6    3  0.0056366754716 

   A    B    I    J                     A    B    I    J                  
------------------------------------ ------------------------------------ 
   7    8    4    4 -0.0536801433973   16    7    5    4  0.0384694080581 
   8    7    4    4 -0.0536801433973    7   16    4    5  0.0384694080581 
   7    9    4    5  0.0535430438402   27    7    5    4  0.0319284278479 
   9    7    5    4  0.0535430438402    7   27    4    5  0.0319284278479 
   7   15    4    4  0.0527774240131   11    7    3    4  0.0315774429396 
  15    7    4    4  0.0527774240131    7   11    4    3  0.0315774429396 
  12    7    3    4  0.0386963134703   19    7    3    4  0.0305028011697 
   7   12    4    3  0.0386963134703 

Searching for 1 roots in irrep 4

EOMEE-CCSD guess vector:

   A    I                  
-------------------------- 
   7    5  1.0000000000000 

Beginning iterative solution of EOMEE-CCSDT equations:

It.  Correlation Energy R1 Residual R2 Residual R3 Residual CPU Time (s) Walltime (s)
-------------------------------------------------------------------------------------
  1   0.488616555913311 2.86491e-02 8.98595e-02 2.38860e-03        4.656        0.233
  2   0.382223642908007 6.31730e-02 3.65586e-02 5.28202e-03        4.893        0.245
  3   0.355374348186488 1.92795e-02 1.12403e-02 4.37944e-03        5.118        0.257
  4   0.354954723502091 2.41225e-02 6.46635e-03 4.88480e-03        5.312        0.266
  5   0.344770899306915 9.91792e-03 7.16810e-03 2.59742e-03        5.524        0.277
  6   0.340697252795912 4.38544e-03 2.19650e-03 1.41562e-03        5.728        0.287
  7   0.341282904765520 3.24098e-03 1.52944e-03 4.54787e-04        5.955        0.298
  8   0.341385027519892 1.93247e-03 1.18854e-03 3.23356e-04        6.399        0.321
  9   0.340968790363750 9.34429e-04 5.94590e-04 1.91404e-04        6.436        0.323
 10   0.340904821404016 3.45488e-04 3.02914e-04 1.09152e-04        6.572        0.329
 11   0.340997544995770 7.95334e-05 1.03217e-04 4.53843e-05        6.827        0.342
Locking on root: 0.341013745116797
 12   0.341013745116797 2.46001e-05 2.54031e-05 1.49071e-05        7.036        0.353
 13   0.341000346677887 6.59606e-06 1.32843e-05 6.54084e-06        7.238        0.363
 14   0.340997467961626 2.10267e-06 3.84313e-06 2.86914e-06        7.490        0.375

EOMEE-CCSDT iterations converged in 14 cycles and 4.270 seconds (0.305 s/it.) at 3.964 Gflops/sec

EOMEE-CCSDT excitation energy:   0.340997467961628 (  9.279012839133085 eV)
Total EOMEE-CCSDT energy:      -75.933039870548967

Converged root:

   A    I                     A    I                     A    I                  
-------------------------- -------------------------- -------------------------- 
   7    5  0.5952889324613   17    5  0.0211467955978   27    3 -0.0020218381898 
  11    5  0.2300651024850   26    5  0.0176804329193   14    4 -0.0017104329887 
  12    5  0.2150592887380   33    5  0.0068578206540   35    5  0.0008442031565 
  19    5  0.0628412378446   14    2  0.0063517681386   16    3  0.0008116958682 
  20    5  0.0377705111294   29    5  0.0031992355737   41    5  0.0007347065564 

   A    B    I    J                     A    B    I    J                  
------------------------------------ ------------------------------------ 
   7    9    5    5  0.0655819007910   12    7    3    5  0.0387804744210 
   9    7    5    5  0.0655819007910    7   12    5    3  0.0387804744210 
   7   16    5    5  0.0453277856414    7   15    5    4  0.0376289148349 
  16    7    5    5  0.0453277856414   15    7    4    5  0.0376289148349 
   7    8    5    4 -0.0436667460083   11    7    3    5  0.0326234529155 
   8    7    4    5 -0.0436667460083    7   11    5    3  0.0326234529155 
   7   27    5    5  0.0398031271084   19    7    3    5  0.0312406762591 
  27    7    5    5  0.0398031271084 

 @CHECKOUT-I, Total execution time (CPU/WALL):      450.80/      25.37 seconds.
--executable xncc finished with status     0 in       27.16 seconds (walltime).
  The final electronic energy is       -75.933039870548967 a.u. 
  This computation required                           55.48 seconds (walltime).
