 --invoking executable--
/home/CEISAM/blondel-a/soft/cfour2.1/cfour2.1-serial-mkl/bin/xjoda


   *************************************************************************
         <<<     CCCCCC     CCCCCC   |||     CCCCCC     CCCCCC   >>>
       <<<      CCC        CCC       |||    CCC        CCC         >>>
      <<<      CCC        CCC        |||   CCC        CCC            >>>
    <<<        CCC        CCC        |||   CCC        CCC              >>>
      <<<      CCC        CCC        |||   CCC        CCC            >>>
       <<<      CCC        CCC       |||    CCC        CCC         >>>
         <<<     CCCCCC     CCCCCC   |||     CCCCCC     CCCCCC   >>>
   *************************************************************************

     ****************************************************************
     * CFOUR Coupled-Cluster techniques for Computational Chemistry *
     ****************************************************************
 

   Department of Chemistry                Institut fuer Physikalische Chemie
   University of Florida                  Universitaet Mainz
   Gainesville, FL 32611, USA             D-55099 Mainz, Germany

   Department of Chemistry                Fakultaet fuer Chemie und Biowiss.
   Johns Hopkins University               Karlsruher Institut fuer Technologie
   Baltimore, MD 21218, USA               D-76131 Karlsruhe, Germany

   Department of Chemistry                Department of Physical Chemistry
   Southern Methodist University          Eotvos Lorand University
   Dallas, TX 75275, USA                  H-1053 Budapest, Hungary

 
                       Version 2.1
 
                     cribbar044                                        
                     Wed Mar 17 08:19:15 CET 2021                      
                     integer*8 version is running
 
********************************************************************************
*                          Input from ZMAT file                                *
********************************************************************************
Ketene -GS                                                                      
N     0.0000000000            0.0000000000            1.0400863228              
N     0.0000000000            0.0000000000           -1.0400863228              
                                                                                
*CFOUR(COORD=CARTESIAN,UNITS=BOHR                                               
       MEMORY=250,MEM_UNIT=GB,CC_PROG=NCC                                       
       FROZEN_CORE=1                                                            
       CALC=CC4,BASIS=AUG-PVTZ                                                  
       SCF_CONV=8,CC_CONV=7,ESTATE_CONV=5,ESTATE_MAXCYC=120                     
       EXCITE=EOMEE,ESTATE_SYM=0/0/0/0/0/0/1/2)                                 
                                                                                
********************************************************************************
    -------------------------------------------------------------------
                    CFOUR Control Parameters 
    -------------------------------------------------------------------
        External           Internal           Value            Units
          Name               Name
    -------------------------------------------------------------------
       ABCDTYPE             IABCDT         STANDARD    [  0]    ***   
       ANHARMONIC           IANHAR         OFF         [  0]    ***   
       ANH_ALGORIT          IANALG         STANDARD    [  0]    ***   
       ANH_DERIVAT          IANDER         SECOND      [  1]    ***   
       ANH_MODE             ANHMOD         VIBRATION   [  0]    ***   
       ANH_STEPSIZ          ICUBST             50000          x 10-6  
       ANH_SYMMETR          IANHSM         ABELIAN     [  0]    ***   
       AO_LADDERS           IAOLAD         SINGLEPASS  [  1]    ***   
       AV_SCF               IAVSCF         OFF         [  0]    ***   
       BASIS                IBASIS         AUG-PVTZ    [ 34]    ***   
       BOTHVECTORS          BOTHVC         OFF         [  0]    ***   
       BOX_POTENT           IPIAB          OFF         [  0]    ***   
       BREIT                IBREIT         OFF         [  0]    ***   
       BRUCK_CONV           IBRTOL          10D-  4             ***   
       BRUECKNER            IBRKNR         OFF         [  0]    ***   
       BUFFERSIZE           IBUFFS              4096            ***   
       CACHE_RECS           ICHREC             10               ***   
       CALCLEVEL            ICLLVL         CC4         [ 52]    ***   
       CCORBOPT             ICCORB         OFF         [  0]  x 0.01  
       CC_CONV              ICCCNV          10D-  7             ***   
       CC_EXPORDER          ICCEOR              5               ***   
       CC_EXTRAPOL          ICCEXT         DIIS        [  1]    ***   
       CC_GUESS             ICCGES         MP2         [  0]    ***   
       CC_MAXCYC            ICCCYC            100              cycles 
       CC_PROGRAM           ICCPRO         NCC         [  5]    ***   
       CHARGE               ICHRGE              0               ***   
       CHOLESKY             ICHOLE         OFF         [  0]    ***   
       CIS_CONV             ICISTL              5               ***   
       COMM_SIZE            IPSIZE            ***               ***   
       CONSTANT             ICONST         OLD         [  1]    ***   
       CONTINUUM            ICONTU         NONE        [  0]    ***   
       CONTRACTION          ICNTYP         GENERAL     [  1]    ***   
       COORDINATES          ICOORD         CARTESIAN   [  1]    ***   
       CPHF_CONVER          ICPHFT          10D- 16             ***   
       CPHF_MAXCYC          ICPHFC             64              cycles 
       CUBIC                ICUBIC         OFF         [  0]    ***   
       CURVILINEAR          ICURVY         OFF         [  0]    ***   
       DBOC                 IDBOC          OFF         [  0]    ***   
       DCT                  IDCT           OFF         [  0]    ***   
       DERIV_LEV            IDRLVL         ZERO        [  0]    ***   
       DEVMEM_SIZE          IDVMEM         *********           MByte  
       DIAG_MRCC            IEOMST          10D-  0             ***   
       DIFF_TYPE            IDIFTY         RELAXED     [  0]    ***   
       DIRECT               IDIRCT         OFF         [  0]    ***   
       DROPMO               IDRPMO      NONE         
       ECP                  IECP           OFF         [  0]    ***   
       EIGENVECTOR          IVEC                1               ***   
       EL_ANHARM            IELANH         OFF         [  0]    ***   
       EOMFOLLOW            IEOMSR         ENERGY      [  0]    ***   
       EOMIP                IEOMIP         OFF         [  0]    ***   
       EOMLEVEL             HBARFM         SAME        [  0]    ***   
       EOM_MRCC             IMRCCE         NEW         [  1]    ***   
       EOM_NONIT            EOMNON         OFF         [  0]    ***   
       EOM_NSING            IEOMSI          10D-  0             ***   
       EOM_NSTATES          IMRCCD         DAVIDSON    [  0]    ***   
       EOM_NTRIP            IEOMTR          10D-  0             ***   
       EOM_ORDER            IEXORD         ENERGY      [  0]    ***   
       EOM_PROPSTA          IEOMST              0               ***   
       ESTATE_CONV          IEXTOL          10D-  5             ***   
       ESTATE_DIAG          IEXDIG         ITERATIVE   [  0]    ***   
       ESTATE_LOCK          IESLOC         ON          [  1]    ***   
       ESTATE_MAXC          IEXMXC            120               ***   
       ESTATE_PROP          IEXPRP         OFF         [  0]    ***   
       ESTATE_SYM           IEXSYM   0,  0,  0,  0,  0,  0,  1,  2,
       EVAL_HESS            IRECAL              0            # of cyc.
       EXCITATION           IEXCIT              0               ***   
       EXCITE               IEXCIT         EOMEE       [  3]    ***   
       EXTERN_POT           IEXPOT         OFF         [  0]    ***   
       FCGRADNEW            IFCGNW         OFF         [  0]    ***   
       FC_FIELD             IFINFC              0             x 10-6  
       FD_CALTYPE           IFDCAL         GRADONLY    [  0]    ***   
       FD_PROJECT           IFDPRJ         OFF         [  1]    ***   
       FD_STEPSIZE          IDISFD              0            10-4 bohr
       FD_USEGROUP          IFDGRP         FULL        [  0]    ***   
       FILE_RECSIZ          IFLREC              4096           words  
       FINITE_PERT          IFIPER              0             x 10-6  
       FIXGEOM              IFIXGM         OFF         [  0]    ***   
       FOCK                 IFOCK          AO          [  1]    ***   
       FREQ_ALGORI          IVIALG         STANDARD    [  0]    ***   
       FROZEN_CORE          IFROCO         ON          [  1]    ***   
       GAMMA_ABCD           IGABCD         STORE       [  0]    ***   
       GAMMA_ABCI           IGABCI         STORE       [  0]    ***   
       GENBAS_1             IGNBS1              0               ***   
       GENBAS_2             IGNBS2              0               ***   
       GENBAS_3             IGNBS3              0               ***   
       GENBAS_4             IGNBS4              0               ***   
       GEO_CONV             ICONTL              5              H/bohr 
       GEO_MAXCYC           IOPTCY             50               ***   
       GEO_MAXSTEP          IMXSTP            300            millibohr
       GEO_METHOD           INR            SINGLE_POINT[  5]    ***   
       GIAO                 IGIAO          OFF         [  1]    ***   
       GIMIC                IGIMIC         OFF         [  0]    ***   
       GRID                 IGRID          OFF         [  0]    ***   
       GRID_ALGO            IGALGO         SERIAL      [  0]    ***   
       GUESS                IGUESS         MOREAD      [  0]    ***   
       HBAR                 IHBAR          ON          [  1]    ***   
       HESS_TYPE            IHESTP         SCF         [  0]    ***   
       HF2_FILE             IHF2Fl         USE         [  1]    ***   
       HFSTABILITY          ISTABL         OFF         [  0]    ***   
       INCORE               INCORE         OFF         [  0]    ***   
       INPUT_MRCC           IMRCC          ON          [  1]    ***   
       INTEGRALS            INTTYP         VMOL        [  1]    ***   
       JODA_PRINT           IJPRNT              0               ***   
       KEYWORD_OUT          IDMPKW         NO          [  0]    ***   
       LINDEP_TOL           ILINDP              8               ***   
       LINEQ_CONV           IZTACN          10D-  7           cycles  
       LINEQ_EXPOR          ILMAXD              5               ***   
       LINEQ_MAXCY          ILMAXC            100               ***   
       LINEQ_TYPE           ILTYPE         DIIS        [  1]    ***   
       LOCK_ORBOCC          ILOCOC         OFF         [  0]    ***   
       MEMORY_SIZE          IMEMSZ         *********           words  
       MEM_UNIT             IMEMU          GB          [  3]    ***   
       MRCC                 IMRCCC         OFF         [  0]    ***   
       MULTIPLICTY          IMULTP              1               ***   
       NACOUPLING           IVCOUP         OFF         [  0]    ***   
       NEGEVAL              IDIE           ABORT       [  0]    ***   
       NEWNORM              INEWNO         OFF         [  0]    ***   
       NON-HF               INONHF         OFF         [  0]    ***   
       NTOP_TAMP            ITOPT2             15               ***   
       NUC_MODEL            INUCMO         POINT       [  0]    ***   
       OCCUPATION           IOCCU   ESTIMATED BY SCF 
       OPEN-SHELL           IOPEN          SPIN-ORBITAL[  0]    ***   
       OPTVIB               IOPTVB         OFF         [  0]    ***   
       ORBITALS             IORBTP         STANDARD    [  0]    ***   
       PARALLEL             IPARAL         ON          [  1]    ***   
       PARA_INT             IPINTS         ON          [  1]    ***   
       PARA_PRINT           IPPRIN              0               ***   
       PERT_ORB             IPTORB         STANDARD    [  0]    ***   
       POINTS               IGRDFD              0               ***   
       PRINT                IPRNT               0               ***   
       PROPS                IPROPS         OFF         [  0]    ***   
       PROP_INTEGR          IINTYP         INTERNAL    [  0]    ***   
       PSI                  IPSI           OFF         [  0]    ***   
       QC_ALG               IQCALG         FLM         [  0]    ***   
       QC_LINALG            IQCLIN         TRIDIAG     [  2]    ***   
       QC_MAXCYC            IQCMAX          10D-100           cycles  
       QC_MAXSCFCY          IQCMSC          10D- 15           cycles  
       QC_RTRUST            IQCRTR          10D-  0           x 10-3  
       QC_SKIPSCF           IQCSKI         OFF         [  0]    ***   
       QC_START             IQCSTA          10D-  1             ***   
       QRHFGUESS            IQGUES         OFF         [  0]    ***   
       QUARTIC              IQUART         OFF         [  0]    ***   
       RAMAN_INT            IRAMIN         OFF         [  0]    ***   
       RAMAN_ORB            IRAMRE         UNRELAXED   [  0]    ***   
       RDO                  IRDOFM         OFF         [  0]    ***   
       REDUCE_REPR          REDREP         Ir          [  0]    ***   
       REFERENCE            IREFNC         RHF         [  0]    ***   
       RELATIVIST           IRELAT         OFF         [  0]    ***   
       RELAX_DENS           IRDENS         OFF         [  0]    ***   
       RESET_FLAGS          IRESET         OFF         [  0]    ***   
       RESTART_CC           ICCRES         OFF         [  0]    ***   
       ROT_EVEC             ROTVEC              0               ***   
       SAVE_INTS            ISVINT         OFF         [  0]    ***   
       SCALE_ON             ISTCRT              0               ***   
       SCF_CONV             ISCFCV          10D-  8             ***   
       SCF_DAMPING          IDAMP               0             x 10-3  
       SCF_EXPORDE          IRPPOR              6               ***   
       SCF_EXPSTAR          IRPPLS              8               ***   
       SCF_EXTRAPO          IRPP           ON          [  1]    ***   
       SCF_MAXCYC           ISCFCY            150              cycles 
       SCF_NOSTOP           ISCFST         OFF         [  0]    ***   
       SCF_PRINT            ISCFPR              0               ***   
       SCF_PROG             ISCFPR         SCF         [  0]    ***   
       SD_FIELD             IFINSD              0             x 10-6  
       SOPERT               IPERSO         OFF         [  0]    ***   
       SPHERICAL            IDFGHI         ON          [  1]    ***   
       SPINORBIT            ISOCAL         OFF         [  0]    ***   
       SPINROTATIO          ISRCON         OFF         [  0]    ***   
       SPIN_FLIP            ISPFLP         OFF         [  0]    ***   
       SPIN_ORBIT           ISPORB         OFF         [  0]    ***   
       SPIN_SCAL            ISCSMP         OFF         [  0]    ***   
       STEEPSCALE           ISTPSC              1000          x 10-3  
       SUBGROUP             ISUBGP         DEFAULT     [  0]    ***   
       SUBGRPAXIS           ISBXYZ         X           [  0]    ***   
       SYMMETRY             ISYM           ON          [  0]    ***   
       SYM_CHECK            ISYMCK         OVERRIDE    [  1]    ***   
       T3_EXTRAPOL          IT3EXT         ON          [  1]    ***   
       T4_EXTRAPOL          IT4EXP         OFF         [  0]    ***   
       TAMP_SUM             IEVERY              5               ***   
       TESTSUITE            ITESTS         OFF         [  0]    ***   
       THERMOCH             ITHERM         OFF         [  0]    ***   
       TOL_CHOLESK          ITOLCH          10D-  4             ***   
       TRANGRAD             IRESRM         OFF         [  0]    ***   
       TRANS_INV            ITRAIN         USE         [  0]    ***   
       TREAT_PERT           ITREAT         SIMULTANEOUS[  0]    ***   
       TRIP_ALGORI          ITRALG         NORMAL      [  0]    ***   
       UIJ_THRESHO          IUIJTH              1               ***   
       UNITS                IUNITS         BOHR        [  1]    ***   
       UNOS                 IUNOS          OFF         [  0]    ***   
       UPDATE_HESS          IHUPDT         ON          [  1]    ***   
       VIBPHASE             ISETPH         STANDARD    [  0]    ***   
       VIBRATION            IVIB           NO          [  0]    ***   
       VIB_ALGORIT          IGEALG         STANDARD    [  0]    ***   
       VNATORB              IVNORB         OFF         [  0]    ***   
       VTRAN                IVTRAN         FULL/PARTIAL[  0]    ***   
       XFIELD               IXEFLD              0             x 10-6  
       XFORM_TOL            IXFTOL          10D- 11             ***   
       YFIELD               IYEFLD              0             x 10-6  
       ZFIELD               IZEFLD              0             x 10-6  
       ZSCALE_EXP           IZEXPS         OFF         [  0]    ***   
    -------------------------------------------------------------------
  @GETXYZ-I,     2 atoms read from ZMAT.
   Rotational constants (in cm-1): 
          1.9870203770             1.9870203770
   Rotational constants (in MHz): 
      59569.3806383154         59569.3806383154
********************************************************************************
   The full molecular point group is DXh .
   The largest Abelian subgroup of the full molecular point group is D2h .
   The computational point group is D2h .
********************************************************************************


 ----------------------------------------------------------------
         Coordinates used in calculation (QCOMP) 
 ----------------------------------------------------------------
 Z-matrix   Atomic            Coordinates (in bohr)
  Symbol    Number           X              Y              Z
 ----------------------------------------------------------------
     N         7         0.00000000     0.00000000    -1.04008632
     N         7        -0.00000000     0.00000000     1.04008632
 ----------------------------------------------------------------
 
   Interatomic distance matrix (Angstroms) 
 
                 N             N    
                [ 1]        [ 2]
  N    [ 1]     0.00000
  N    [ 2]     1.10078     0.00000
 rotcon2
   Rotational constants (in cm-1): 
          1.9870203770             0.0000000000
   Rotational constants (in MHz): 
      59569.3806383154             0.0000000000
  There are   2 frozen-core orbitals.
  There are   92 basis functions.
 @GEOPT-W, Archive file not created for single-point calculation.
 @CHECKOUT-I, Total execution time (CPU/WALL):        0.17/       1.64 seconds.
--executable xjoda finished with status     0 in        2.28 seconds (walltime).
 --invoking executable--
/home/CEISAM/blondel-a/soft/cfour2.1/cfour2.1-serial-mkl/bin/xvmol
 SERIAL VERSION OF MOLECULE STARTED
********************************************************************************
                    INPUT FROM MOL FILE
********************************************************************************
INTGRL        1    0    1    0    0    0    0    0    0                         
         *** CFOUR Program System (Release V0.1) ***                            
Ketene -GS                                                                      
    1    3 X  Y   Z   0.10E-08              0    0                              
   9999.00      3.00                                                            
          7.00000000    1    4    1    1    1    1                              
N #1   0.000000000000000   0.000000000000000  -1.040086322800000                
   11    5                                                                      
   11420.0000000000       5.230000000000000E-004 -1.150000000000000E-004        
  0.000000000000000E+000  0.000000000000000E+000  0.000000000000000E+000        
   1712.00000000000       4.045000000000000E-003 -8.950000000000000E-004        
  0.000000000000000E+000  0.000000000000000E+000  0.000000000000000E+000        
   389.300000000000       2.077500000000000E-002 -4.624000000000000E-003        
  0.000000000000000E+000  0.000000000000000E+000  0.000000000000000E+000        
   110.000000000000       8.072699999999999E-002 -1.852800000000000E-002        
  0.000000000000000E+000  0.000000000000000E+000  0.000000000000000E+000        
   35.5700000000000       0.233074000000000      -5.733900000000000E-002        
  0.000000000000000E+000  0.000000000000000E+000  0.000000000000000E+000        
   12.5400000000000       0.433501000000000      -0.132076000000000             
  0.000000000000000E+000  0.000000000000000E+000  0.000000000000000E+000        
   4.64400000000000       0.347472000000000      -0.172510000000000             
  0.000000000000000E+000  0.000000000000000E+000  0.000000000000000E+000        
   1.29300000000000       4.126200000000000E-002  0.151814000000000             
   1.00000000000000       0.000000000000000E+000  0.000000000000000E+000        
  0.511800000000000      -8.508000000000000E-003  0.599944000000000             
  0.000000000000000E+000  0.000000000000000E+000  0.000000000000000E+000        
  0.178700000000000       2.384000000000000E-003  0.387462000000000             
  0.000000000000000E+000   1.00000000000000       0.000000000000000E+000        
  5.760000000000000E-002  0.000000000000000E+000  0.000000000000000E+000        
  0.000000000000000E+000  0.000000000000000E+000   1.00000000000000             
    6    4                                                                      
   26.6300000000000       1.467000000000000E-002  0.000000000000000E+000        
  0.000000000000000E+000  0.000000000000000E+000                                
   5.94800000000000       9.176400000000000E-002  0.000000000000000E+000        
  0.000000000000000E+000  0.000000000000000E+000                                
   1.74200000000000       0.298683000000000       0.000000000000000E+000        
  0.000000000000000E+000  0.000000000000000E+000                                
  0.555000000000000       0.498487000000000        1.00000000000000             
  0.000000000000000E+000  0.000000000000000E+000                                
  0.172500000000000       0.337023000000000       0.000000000000000E+000        
   1.00000000000000       0.000000000000000E+000                                
  4.910000000000000E-002  0.000000000000000E+000  0.000000000000000E+000        
  0.000000000000000E+000   1.00000000000000                                     
    3    3                                                                      
   1.65400000000000        1.00000000000000       0.000000000000000E+000        
  0.000000000000000E+000                                                        
  0.469000000000000       0.000000000000000E+000   1.00000000000000             
  0.000000000000000E+000                                                        
  0.151000000000000       0.000000000000000E+000  0.000000000000000E+000        
   1.00000000000000                                                             
    2    2                                                                      
   1.09300000000000        1.00000000000000       0.000000000000000E+000        
  0.364000000000000       0.000000000000000E+000   1.00000000000000             
FINISH                                                                          
 
********************************************************************************
 ONE- AND TWO-ELECTRON INTEGRALS OVER SYMMETRY-ADAPTED AOS ARE CALCULATED.

  SPHERICAL HARMONICS ARE USED.
  
  INTEGRALS LESS THAN  0.10E-13 ARE NEGLECTED.

  NUCLEAR REPULSION ENERGY :   23.5557371181 A.U.
  @MOLECU-I, ONE ELECTRON INTEGRALS (CPU/WALL):        0.03/       0.06 SECONDS.
  @TWOEL-I,      28803 INTEGRALS OF SYMMETRY TYPE  I I I I
  @TWOEL-I,     247217 INTEGRALS OF SYMMETRY TYPE  I J I J
  @TWOEL-I,     146899 INTEGRALS OF SYMMETRY TYPE  I I J J
  @TWOEL-I,     548139 INTEGRALS OF SYMMETRY TYPE  I J K L
  @TWOEL-I, TOTAL NUMBER OF 2-E INTEGRALS     971058.
  @MOLECU-I, TWO ELECTRON INTEGRALS (CPU/WALL):       20.44/       1.08 SECONDS.
 @CHECKOUT-I, Total execution time (CPU/WALL):       20.77/       1.17 seconds.

Running with 20 threads/proc

--executable xvmol finished with status     0 in        1.75 seconds (walltime).
 --invoking executable--
/home/CEISAM/blondel-a/soft/cfour2.1/cfour2.1-serial-mkl/bin/xvmol2ja
 @GETMEM-I,  Allocated  238418 MB of main memory.
 @CHECKOUT-I, Total execution time (CPU/WALL):        0.98/       0.22 seconds.
--executable xvmol2ja finished with status     0 in        0.78 seconds (walltime).
 --invoking executable--
/home/CEISAM/blondel-a/soft/cfour2.1/cfour2.1-serial-mkl/bin/xvscf
  There are   92 functions in the AO basis.

  There are 8 irreducible representations.

       Irrep        # of functions
         1                 19
         2                 11
         3                 11
         4                  5
         5                 19
         6                 11
         7                 11
         8                  5


  Parameters for SCF calculation: 
        SCF reference function:  RHF  
  Maximum number of iterations:  150
     Full symmetry point group: DXh 
     Computational point group: D2h 
        Initial density matrix: MOREAD                 
     SCF convergence tolerance: 10**(- 8)
  DIIS convergence acceleration:  ON
          Latest start for DIIS:   8
                     DIIS order:   6

  Memory information:     419746 words required.
  Fock matrices are constructed from AO integral file.
 @GETMEM-I,  Allocated       3 MB of main memory.
  Initialization and symmetry analysis required      0.003 seconds.

  @INITGES-I, Occupancies from core Hamiltonian:

          Alpha population by irrep:   2    1    1    0    2    1    0    0
           Beta population by irrep:   2    1    1    0    2    1    0    0


 total no. of electrons in initial guess :  0.000000000000000E+000
  --------------------------------------------------------------------
  Iteration         Total Energy            Largest Density Difference
  --------------------------------------------------------------------
       0            23.555737118092217              0.0000000000D+00
   current occupation vector 
     2  1  1  0  2  1  0  0
     2  1  1  0  2  1  0  0
       1           -93.831406490084248              0.7564085796D+01
   current occupation vector 
     2  1  1  0  2  1  0  0
     2  1  1  0  2  1  0  0
       2           -91.053205285418954              0.1624077454D+03
   current occupation vector 
     2  1  1  0  2  0  1  0
     2  1  1  0  2  0  1  0
       3          -105.684780909395556              0.1624225939D+03
   current occupation vector 
     3  1  1  0  2  0  0  0
     3  1  1  0  2  0  0  0
       4          -107.720031811045203              0.2178008513D+01
   current occupation vector 
     3  1  1  0  2  0  0  0
     3  1  1  0  2  0  0  0
       5          -108.808278691625389              0.9127702947D+00
   current occupation vector 
     3  1  1  0  2  0  0  0
     3  1  1  0  2  0  0  0
       6          -108.969783679874894              0.3771498398D+00
   current occupation vector 
     3  1  1  0  2  0  0  0
     3  1  1  0  2  0  0  0
       7          -108.983919632553835              0.8931670336D-01
   current occupation vector 
     3  1  1  0  2  0  0  0
     3  1  1  0  2  0  0  0
       8          -108.984064907956480              0.1053600221D-01
   current occupation vector 
     3  1  1  0  2  0  0  0
     3  1  1  0  2  0  0  0
       9          -108.984066250769615              0.1073087993D-02
   current occupation vector 
     3  1  1  0  2  0  0  0
     3  1  1  0  2  0  0  0
      10          -108.984066270754795              0.8986090199D-04
   current occupation vector 
     3  1  1  0  2  0  0  0
     3  1  1  0  2  0  0  0
      11          -108.984066271359694              0.1543627675D-04
   current occupation vector 
     3  1  1  0  2  0  0  0
     3  1  1  0  2  0  0  0
      12          -108.984066271372996              0.2902679119D-05
   current occupation vector 
     3  1  1  0  2  0  0  0
     3  1  1  0  2  0  0  0
      13          -108.984066271372853              0.2977480926D-06
   current occupation vector 
     3  1  1  0  2  0  0  0
     3  1  1  0  2  0  0  0
      14          -108.984066271372626              0.4940780424D-07
   current occupation vector 
     3  1  1  0  2  0  0  0
     3  1  1  0  2  0  0  0

  SCF has converged.

 Density matrix saved to file den.dat
 total electron number:   14.0000000000000     
     E(SCF)=      -108.984066271372598              0.7758717890D-08


  Final occupancies:

     Alpha population by irrep:   3    1    1    0    2    0    0    0
      Beta population by irrep:   3    1    1    0    2    0    0    0


  Eigenvector printing suppressed.

 @PUTMOS-I, Writing converged MOs to NEWMOS. 
 @PUTMOS-I, Symmetry   1 Full Blocks  4 Partial Blocksize   3
 @PUTMOS-I, Symmetry   2 Full Blocks  2 Partial Blocksize   3
 @PUTMOS-I, Symmetry   3 Full Blocks  2 Partial Blocksize   3
 @PUTMOS-I, Symmetry   4 Full Blocks  1 Partial Blocksize   1
 @PUTMOS-I, Symmetry   5 Full Blocks  4 Partial Blocksize   3
 @PUTMOS-I, Symmetry   6 Full Blocks  2 Partial Blocksize   3
 @PUTMOS-I, Symmetry   7 Full Blocks  2 Partial Blocksize   3
 @PUTMOS-I, Symmetry   8 Full Blocks  1 Partial Blocksize   1
 @PUTFOCK-I, Writing converged Fock matrix to NEWFOCK. 
 @PUTFOCK-I, Symmetry   1 Full Blocks  4 Partial Blocksize   3
 @PUTFOCK-I, Symmetry   2 Full Blocks  2 Partial Blocksize   3
 @PUTFOCK-I, Symmetry   3 Full Blocks  2 Partial Blocksize   3
 @PUTFOCK-I, Symmetry   4 Full Blocks  1 Partial Blocksize   1
 @PUTFOCK-I, Symmetry   5 Full Blocks  4 Partial Blocksize   3
 @PUTFOCK-I, Symmetry   6 Full Blocks  2 Partial Blocksize   3
 @PUTFOCK-I, Symmetry   7 Full Blocks  2 Partial Blocksize   3
 @PUTFOCK-I, Symmetry   8 Full Blocks  1 Partial Blocksize   1


 
  ORBITAL EIGENVALUES (ALPHA)  (1H = 27.2113834 eV)

       MO #        E(hartree)               E(eV)           FULLSYM    COMPSYM
       ----   --------------------   --------------------   -------   ---------
    1     1         -15.6866725890        -426.8560620892    SGg+        Ag (1)
    2    47         -15.6831963064        -426.7614676306    SGu+       B1u (5)
    3     2          -1.4702741864         -40.0081945883    SGg+        Ag (1)
    4    48          -0.7807768676         -21.2460186928    SGu+       B1u (5)
    5     3          -0.6343548900         -17.2616741235    SGg+        Ag (1)
    6    20          -0.6132169205         -16.6864807324    PIu        B2u (2)
    7    31          -0.6132169204         -16.6864807275    PIu        B3u (3)
  +++++++++++++++++++++++++++++++++++++++++++++++++++++++++++++++++++++++++++++
    8    49           0.0827529119           2.2518212135    SGu+       B1u (5)
    9    66           0.1169450682           3.1822370869    PIg        B3g (6)
   10    77           0.1169450682           3.1822370871    PIg        B2g (7)
   11     4           0.1170023556           3.1837959565    SGg+        Ag (1)
   12    21           0.1253965746           3.4122142689    PIu        B2u (2)
   13    32           0.1253965747           3.4122142699    PIu        B3u (3)
   14     5           0.1602192783           4.3597882109    SGg+        Ag (1)
   15    67           0.2083555667           5.6696432091    PIg        B3g (6)
   16    78           0.2083555667           5.6696432101    PIg        B2g (7)
   17    50           0.2813957570           7.6571678319    SGu+       B1u (5)
   18    42           0.4133484835          11.2477840629    DEg        B1g (4)
   19     6           0.4133484835          11.2477840629    DEg         Ag (1)
   20     7           0.4790380236          13.0352873240    SGg+        Ag (1)
   21    51           0.5317444772          14.4695028394    SGu+       B1u (5)
   22    22           0.5691694416          15.4878878959    PIu        B2u (2)
   23    33           0.5691694417          15.4878878966    PIu        B3u (3)
   24    68           0.5785903209          15.7442430532    PIg        B3g (6)
   25    79           0.5785903209          15.7442430542    PIg        B2g (7)
   26    88           0.5820867507          15.8393857464    DEu         Au (8)
   27    52           0.5820867507          15.8393857464    DEu        B1u (5)
   28    23           0.7317637688          19.9123044705    PIu        B2u (2)
   29    34           0.7317637689          19.9123044729    PIu        B3u (3)
   30    53           0.7438080224          20.2400452744    SGu+       B1u (5)
   31     8           0.7601109484          20.6836704446    SGg+        Ag (1)
   32    69           1.0489899228          28.5444669716    PIg        B3g (6)
   33    80           1.0489899228          28.5444669731    PIg        B2g (7)
   34    54           1.0782127043          29.3396592824    SGu+       B1u (5)
   35     9           1.2199801921          33.1973487466    SGg+        Ag (1)
   36    43           1.3418358776          36.5132105245    DEg        B1g (4)
   37    10           1.3418358776          36.5132105245    DEg         Ag (1)
   38    24           1.3717110330          37.3261548320    PHu        B2u (2)
   39    35           1.3717110330          37.3261548320    PHu        B3u (3)
   40    25           1.4728873815          40.0793032442    PIu        B2u (2)
   41    36           1.4728873816          40.0793032448    PIu        B3u (3)
   42    89           1.5711414045          42.7529311341    DEu         Au (8)
   43    55           1.5711414045          42.7529311341    DEu        B1u (5)
   44    56           1.6023430658          43.6019715030    SGu+       B1u (5)
   45    11           1.6981533461          46.2091017733    SGg+        Ag (1)
   46    44           1.7022913117          46.3217015408    DEg        B1g (4)
   47    12           1.7022913117          46.3217015408    DEg         Ag (1)
   48    81           1.7194350515          46.7882064164    PHg        B2g (7)
   49    70           1.7194350515          46.7882064164    PHg        B3g (6)
   50    71           1.7239208324          46.9102707209    PIg        B3g (6)
   51    82           1.7239208324          46.9102707216    PIg        B2g (7)
   52    57           1.9924490603          54.2172952839    SGu+       B1u (5)
   53    26           2.1582007392          58.7276277693    PIu        B2u (2)
   54    37           2.1582007393          58.7276277700    PIu        B3u (3)
   55    90           2.3140542458          62.9686172899    DEu         Au (8)
   56    58           2.3140542458          62.9686172899    DEu        B1u (5)
   57    72           2.4349527558          66.2584329979    PIg        B3g (6)
   58    83           2.4349527558          66.2584329989    PIg        B2g (7)
   59    59           2.7553534850          74.9769800821    SGu+       B1u (5)
   60    13           2.7920765772          75.9762662252    SGg+        Ag (1)
   61    27           3.2901031511          89.5282582701    PIu        B2u (2)
   62    38           3.2901031511          89.5282582713    PIu        B3u (3)
   63    14           4.0148835000         109.2505342260    SGg+        Ag (1)
   64    73           4.2845935729         116.5897184247    PIg        B3g (6)
   65    84           4.2845935729         116.5897184250    PIg        B2g (7)
   66    45           4.3976472343         119.6660649508    DEg        B1g (4)
   67    15           4.3976472343         119.6660649508    DEg         Ag (1)
   68    60           4.5035663481         122.5482705661    SGu+       B1u (5)
   69    28           4.5258803344         123.1554650021    PIu        B2u (2)
   70    39           4.5258803344         123.1554650024    PIu        B3u (3)
   71    16           4.5517642689         123.8598026663    SGg+        Ag (1)
   72    40           4.6621780962         126.8643156545    PHu        B3u (3)
   73    29           4.6621780962         126.8643156545    PHu        B2u (2)
   74    85           5.0407884643         137.1668275414    PHg        B2g (7)
   75    74           5.0407884643         137.1668275414    PHg        B3g (6)
   76    17           5.0752797188         138.1053822912    DEg         Ag (1)
   77    46           5.0752797188         138.1053822912    DEg        B1g (4)
   78    61           5.1559722998         140.3011390486    DEu        B1u (5)
   79    91           5.1559722998         140.3011390486    DEu         Au (8)
   80    62           5.1876531303         141.1632182744    SGu+       B1u (5)
   81    75           5.4110313613         147.2416489605    PIg        B3g (6)
   82    86           5.4110313613         147.2416489608    PIg        B2g (7)
   83    41           5.5887665481         152.0780692734    PIu        B3u (3)
   84    30           5.5887665481         152.0780692735    PIu        B2u (2)
   85    92           5.7395267373         156.1804625826    DEu         Au (8)
   86    63           5.7395267373         156.1804625826    DEu        B1u (5)
   87    18           6.7191556019         182.8375192063    SGg+        Ag (1)
   88    64           6.7627469130         184.0236990875    SGu+       B1u (5)
   89    87           6.8658181207         186.8284092372    PIg        B2g (7)
   90    76           6.8658181207         186.8284092377    PIg        B3g (6)
   91    19          10.8862713935         296.2305046860    SGg+        Ag (1)
   92    65          19.1207264062         520.3014171256    SGu+       B1u (5)


  VSCF finished.

 @CHECKOUT-I, Total execution time (CPU/WALL):        6.82/       0.56 seconds.
--executable xvscf finished with status     0 in        1.11 seconds (walltime).
 --invoking executable--
/home/CEISAM/blondel-a/soft/cfour2.1/cfour2.1-serial-mkl/bin/xvtran
 @GETMEM-I,  Allocated  238418 MB of main memory.
  Full RHF integral transformation
  The following   2 MOs will be dropped:
    1  6
  There are  90 active molecular orbitals.
  Transformation of IIII integrals :
  1 pass through the AO integral file was required.
       28803 AO integrals were read.
       38496 MO integrals were written to HF2.
  Transformation of IIJJ integrals :
  1 pass through the AO integral file was required.
      146899 AO integrals were read.
      164070 MO integrals were written to HF2.
  Transformation of IJIJ integrals :
  1 pass through the AO integral file was required.
      247217 AO integrals were read.
      283516 MO integrals were written to HF2.
  Transformation of IJKL integrals :
  1 pass through the AO integral file was required.
      548139 AO integrals were read.
      582822 MO integrals were written to HF2.
  Summary of active molecular orbitals: 
------------------------------------------------------------------------
 
  Index      Eigenvalue    Symmetry    Index      Eigenvalue    Symmetry
------------------------------------------------------------------------
     1        -1.4702742        1        46         5.0752797        4
     2        -0.6343549        1        47         0.0827529        5
     3        -0.6132169        2        48         0.2813958        5
     4        -0.6132169        3        49         0.5317445        5
     5        -0.7807769        5        50         0.5820868        5
     6         0.1170024        1        51         0.7438080        5
     7         0.1602193        1        52         1.0782127        5
     8         0.4133485        1        53         1.5711414        5
     9         0.4790380        1        54         1.6023431        5
    10         0.7601109        1        55         1.9924491        5
    11         1.2199802        1        56         2.3140542        5
    12         1.3418359        1        57         2.7553535        5
    13         1.6981533        1        58         4.5035663        5
    14         1.7022913        1        59         5.1559723        5
    15         2.7920766        1        60         5.1876531        5
    16         4.0148835        1        61         5.7395267        5
    17         4.3976472        1        62         6.7627469        5
    18         4.5517643        1        63        19.1207264        5
    19         5.0752797        1        64         0.1169451        6
    20         6.7191556        1        65         0.2083556        6
    21        10.8862714        1        66         0.5785903        6
    22         0.1253966        2        67         1.0489899        6
    23         0.5691694        2        68         1.7194351        6
    24         0.7317638        2        69         1.7239208        6
    25         1.3717110        2        70         2.4349528        6
    26         1.4728874        2        71         4.2845936        6
    27         2.1582007        2        72         5.0407885        6
    28         3.2901032        2        73         5.4110314        6
    29         4.5258803        2        74         6.8658181        6
    30         4.6621781        2        75         0.1169451        7
    31         5.5887665        2        76         0.2083556        7
    32         0.1253966        3        77         0.5785903        7
    33         0.5691694        3        78         1.0489899        7
    34         0.7317638        3        79         1.7194351        7
    35         1.3717110        3        80         1.7239208        7
    36         1.4728874        3        81         2.4349528        7
    37         2.1582007        3        82         4.2845936        7
    38         3.2901032        3        83         5.0407885        7
    39         4.5258803        3        84         5.4110314        7
    40         4.6621781        3        85         6.8658181        7
    41         5.5887665        3        86         0.5820868        8
    42         0.4133485        4        87         1.5711414        8
    43         1.3418359        4        88         2.3140542        8
    44         1.7022913        4        89         5.1559723        8
    45         4.3976472        4        90         5.7395267        8
------------------------------------------------------------------------
  -1.47027418636470      -0.634354889999869      -0.613216920549835     
 -0.613216920366718      -0.780776867551544       0.117002355583849     
  0.160219278335591       0.413348483522689       0.479038023624053     
  0.760110948441070        1.21998019206355        1.34183587757133     
   1.69815334612243        1.70229131168627        2.79207657723301     
   4.01488350004201        4.39764723431060        4.55176426885801     
   5.07527971882667        6.71915560185192        10.8862713935376     
  0.125396574613906       0.569169441634772       0.731763768779166     
   1.37171103296486        1.47288738154410        2.15820073922833     
   3.29010315109902        4.52588033440762        4.66217809618892     
   5.58876654810304       0.125396574650431       0.569169441660974     
  0.731763768868292        1.37171103296487        1.47288738156543     
   2.15820073925249        3.29010315114189        4.52588033441792     
   4.66217809618891        5.58876654809703       0.413348483522683     
   1.34183587757132        1.70229131168626        4.39764723431057     
   5.07527971882669       8.275291191076765E-002  0.281395757038640     
  0.531744477179443       0.582086750739408       0.743808022431205     
   1.07821270426148        1.57114140452264        1.60234306584396     
   1.99244906026804        2.31405424576423        2.75535348497296     
   4.50356634812192        5.15597229976345        5.18765313028393     
   5.73952673727603        6.76274691302476        19.1207264062000     
  0.116945068175204       0.208355566703212       0.578590320888906     
   1.04898992278331        1.71943505145015        1.72392083237216     
   2.43495275576217        4.28459357287647        5.04078846433899     
   5.41103136125309        6.86581812072468       0.116945068184463     
  0.208355566739716       0.578590320922660        1.04898992283719     
   1.71943505145014        1.72392083239708        2.43495275579730     
   4.28459357288620        5.04078846433896        5.41103136126492     
   6.86581812070451       0.582086750739399        1.57114140452261     
   2.31405424576418        5.15597229976346        5.73952673727603     
 @CHECKOUT-I, Total execution time (CPU/WALL):        3.79/       0.36 seconds.
--executable xvtran finished with status     0 in        0.92 seconds (walltime).
 --invoking executable--
/home/CEISAM/blondel-a/soft/cfour2.1/cfour2.1-serial-mkl/bin/xintprc
 @GETMEM-I,  Allocated  238418 MB of main memory.
  @GMOIAA-I, Processing MO integrals for spin case AA.
  @GMOIAA-I, Generation of integral list completed.
                      TYPE                NUMBER
                      ----               --------
                      PPPP                848984
                      PPPH                199380
                      PPHH                 12102
                      PHPH                  7496
                      PHHH                   909
                      HHHH                    33

                     TOTAL               1068904

  @FORMT2-I, Second-order MP correlation energies:
            ------------------------------------------------
            E(SCF)                  =   -108.984066271373 a.u.
            E2(AA)                  =     -0.048531259367 a.u.
            E2(AB)                  =     -0.283255987176 a.u.
            E2(TOT)                 =     -0.380318505911 a.u.
            Total MP2 energy        =   -109.364384777283 a.u.
            ------------------------------------------------
   Largest T2 amplitudes for spin case AB:
       _       _                 _       _                 _       _
   i   j   a   b             i   j   a   b             i   j   a   b
-----------------------------------------------------------------------------
[  3   3  65  65]-0.04714 [  4   4  76  76]-0.04714 [  3   3  65  64]-0.04143
[  3   3  64  65]-0.04143 [  4   4  76  75]-0.04143 [  4   4  75  76]-0.04143
[  4   3  76  65]-0.03781 [  3   4  65  76]-0.03781 [  3   3  64  64]-0.03704
[  4   4  75  75]-0.03704 [  4   3  76  64]-0.03332 [  3   4  64  76]-0.03332
[  4   3  75  65]-0.03332 [  3   4  65  75]-0.03332 [  4   3  75  64]-0.02978
-----------------------------------------------------------------------------
   Norm of T2AB vector (    23779 symmetry allowed elements):  0.2984283458.
-----------------------------------------------------------------------------
 @CHECKOUT-I, Total execution time (CPU/WALL):        2.39/       0.35 seconds.
--executable xintprc finished with status     0 in        0.91 seconds (walltime).
  calling xncc 
 --invoking executable--
/home/CEISAM/blondel-a/soft/cfour2.1/cfour2.1-serial-mkl/bin/xncc
 @GETMEM-I,  Allocated       7 MB of main memory.

Running with 20 threads/proc

Following the lowest-energy eigenvector.
Using a partitioned Davidson procedure.
Using discrete restarting.
Using an orthogonal subspace.
Orthogonalizing against previous roots.
Using Modified Gram-Schmidt orthogonalization.

Using DIIS to accelerate the convergence of T1 and T2
Using DIIS to accelerate the convergence of T3
Using immediate high-order contributions
Performing 2 CCSDT sub-iterations
Damping factor for T3: 0.000000
Damping factor for T4: 0.000000

Transposes are coarse-threaded

Memory limit:                232.831 GiB
Minimum memory requirement:  103.315 MiB
Compromise memory amount:      2.930 GiB
Optimal memory requirement:    5.231 GiB

List              Location   Size        Cached Hunks Est. Disk I/O
----------------- ---------- ----------- ------ ----- -------------

           HR_DAV      470:1    5.823 MiB    Yes     -     7.878 GiB
                R        471  511.344 KiB    Yes     -    44.942 MiB
            R_DAV      470:0    5.823 MiB    Yes     -    14.391 GiB
           T_DIIS       70:0  931.562 KiB    Yes     -    16.375 MiB
           Z_DIIS       70:1  931.562 KiB    Yes     -    27.292 MiB
          <AI|bj>         18  185.773 KiB    Yes     -    32.294 MiB
          <Ab|Cd>        233   50.316 MiB    Yes     -   260.524 GiB
          <Ab|Ci>         30    2.998 MiB    Yes     -     9.483 GiB
          <Ab|Ij>         16  185.773 KiB    Yes     -   670.972 MiB
          <Ai|Bj>         25  185.773 KiB    Yes     -    30.660 MiB
          <Aj|bI>         21  185.773 KiB     No     -         0   B
          <Ij|Ka>         10   11.508 KiB    Yes     -    49.243 MiB
          <Ij|Kl>         13      872   B    Yes     -    66.422 KiB
           DD(AI)      448:8      552   B    Yes     -    15.711 KiB
        DD(Ab,Ij)        450  185.773 KiB    Yes     -     7.811 MiB
            F(EA)       92:0    8.102 KiB    Yes     -     8.932 MiB
            F(EM)       93:0      552   B    Yes     -   447.422 KiB
            F(MI)       91:0       56   B    Yes     -    74.047 KiB
           HR(AI)      490:2      552   B    Yes     -     1.107 MiB
        HR(Ab,Ij)        463  185.773 KiB    Yes     -   979.490 MiB
            Q(AI)      190:2      552   B    Yes     -   194.062 KiB
         Q(Ab,Ij)         50  185.773 KiB    Yes     -   277.572 MiB
        QQ(Ab,Ij)          3  185.773 KiB    Yes     -    41.768 MiB
            R(AI)      490:0      552   B    Yes     -     2.587 MiB
         R(Ab,Ij)        446  185.773 KiB    Yes     -     1.548 GiB
            T(AI)       90:0      552   B    Yes     -     1.167 MiB
         T(Ab,Ij)         46  185.773 KiB    Yes     -   914.464 MiB
         W(Mn,Ij)         53      872   B    Yes     -   691.469 KiB
        W~(Ab,Ej)        130    2.998 MiB    Yes     -     8.345 GiB
        W~(EM,bj)         56  185.773 KiB    Yes     -   266.245 MiB
        W~(Em,Bj)         58  185.773 KiB    Yes     -   330.909 MiB
        W~(Ij,Mb)        110   11.508 KiB    Yes     -    15.545 MiB
       W~~(Ab,Ef)         33   50.316 MiB    Yes     -     2.506 GiB
       W~~(Ab,Ej)        169    2.998 MiB    Yes     -     5.065 GiB
       W~~(EM,bj)         76  185.773 KiB    Yes     -   100.869 MiB
       W~~(Em,Bj)         78  185.773 KiB    Yes     -   100.869 MiB
       W~~(Ij,Mb)        165   11.508 KiB    Yes     -    41.640 MiB
       W~~(Mn,Ij)        153      872   B    Yes     -    42.578 KiB
         X(Ab,Ef)        433   50.316 MiB    Yes     -   119.463 GiB
         X(Ab,Ej)        430    2.998 MiB    Yes     -     6.887 GiB
         X(Ab,Ij)        416  185.773 KiB     No     -         0   B
            X(EA)      492:0    8.102 KiB    Yes     -     4.192 MiB
            X(EM)      493:0      552   B    Yes     -   150.000 KiB
         X(EM,bj)        418  185.773 KiB    Yes     -   112.136 MiB
         X(Ef,Am)        469    2.998 MiB    Yes     -     1.646 GiB
         X(Em,Bj)        425  185.773 KiB    Yes     -   142.039 MiB
         X(Ij,Mb)        410   11.508 KiB    Yes     -    25.941 MiB
            X(MI)      491:0       56   B    Yes     -     3.984 KiB
         X(Mn,Ie)        465   11.508 KiB    Yes     -    14.920 MiB
         X(Mn,Ij)        413      872   B    Yes     -   226.875 KiB
            Z(AI)       90:2      552   B    Yes     -   194.062 KiB
         Z(Ab,Ij)         63  185.773 KiB    Yes     -    65.311 MiB
      HR(abc,ijk)    HR3FILE   17.802 MiB    Yes     1    37.244 GiB
    HR(abcd,ijkl)          -    2.194 GiB     No     1         0   B
            HR3_1      HR3_1   17.802 MiB    Yes     1    39.413 GiB
           HR3_10     HR3_10   17.802 MiB    Yes     1    42.704 GiB
           HR3_11     HR3_11   17.802 MiB    Yes     1    39.373 GiB
           HR3_12     HR3_12   17.802 MiB    Yes     1    40.139 GiB
           HR3_13     HR3_13   17.802 MiB    Yes     1    40.904 GiB
           HR3_14     HR3_14   17.802 MiB    Yes     1    41.669 GiB
           HR3_15     HR3_15   17.802 MiB    Yes     1    42.435 GiB
           HR3_16     HR3_16   17.802 MiB    Yes     1    43.200 GiB
           HR3_17     HR3_17   17.802 MiB    Yes     1    43.965 GiB
           HR3_18     HR3_18   17.802 MiB    Yes     1    44.731 GiB
           HR3_19     HR3_19   17.802 MiB    Yes     1    45.496 GiB
            HR3_2      HR3_2   17.802 MiB    Yes     1    35.634 GiB
           HR3_20     HR3_20   17.802 MiB    Yes     1    46.261 GiB
           HR3_21     HR3_21   17.802 MiB    Yes     1     1.398 GiB
           HR3_22     HR3_22   17.802 MiB    Yes     1     1.398 GiB
           HR3_23     HR3_23   17.802 MiB    Yes     1     1.398 GiB
           HR3_24     HR3_24   17.802 MiB    Yes     1     1.398 GiB
           HR3_25     HR3_25   17.802 MiB    Yes     1     1.398 GiB
           HR3_26     HR3_26   17.802 MiB    Yes     1     1.398 GiB
           HR3_27     HR3_27   17.802 MiB    Yes     1     1.398 GiB
           HR3_28     HR3_28   17.802 MiB    Yes     1     1.398 GiB
           HR3_29     HR3_29   17.802 MiB    Yes     1     1.398 GiB
            HR3_3      HR3_3   17.802 MiB    Yes     1    36.433 GiB
           HR3_30     HR3_30   17.802 MiB    Yes     1     1.398 GiB
           HR3_31     HR3_31   17.802 MiB     No     1         0   B
           HR3_32     HR3_32   17.802 MiB     No     1         0   B
            HR3_4      HR3_4   17.802 MiB    Yes     1    37.232 GiB
            HR3_5      HR3_5   17.802 MiB    Yes     1    38.032 GiB
            HR3_6      HR3_6   17.802 MiB    Yes     1    38.831 GiB
            HR3_7      HR3_7   17.802 MiB    Yes     1    39.631 GiB
            HR3_8      HR3_8   17.802 MiB    Yes     1    40.430 GiB
            HR3_9      HR3_9   17.802 MiB    Yes     1    41.230 GiB
       Q(abc,ijk)     Q3FILE   17.802 MiB    Yes     1     1.043 GiB
       R(abc,ijk)     R3FILE   17.802 MiB    Yes     1    88.522 GiB
             R3_1       R3_1   17.802 MiB    Yes     1    73.255 GiB
            R3_10      R3_10   17.802 MiB    Yes     1    75.530 GiB
            R3_11      R3_11   17.802 MiB    Yes     1    71.518 GiB
            R3_12      R3_12   17.802 MiB    Yes     1    72.283 GiB
            R3_13      R3_13   17.802 MiB    Yes     1    73.048 GiB
            R3_14      R3_14   17.802 MiB    Yes     1    73.814 GiB
            R3_15      R3_15   17.802 MiB    Yes     1    74.579 GiB
            R3_16      R3_16   17.802 MiB    Yes     1    75.345 GiB
            R3_17      R3_17   17.802 MiB    Yes     1    76.110 GiB
            R3_18      R3_18   17.802 MiB    Yes     1    76.875 GiB
            R3_19      R3_19   17.802 MiB    Yes     1    77.641 GiB
             R3_2       R3_2   17.802 MiB    Yes     1    68.460 GiB
            R3_20      R3_20   17.802 MiB    Yes     1    76.875 GiB
            R3_21      R3_21   17.802 MiB    Yes     1     1.398 GiB
            R3_22      R3_22   17.802 MiB    Yes     1     1.398 GiB
            R3_23      R3_23   17.802 MiB    Yes     1     1.398 GiB
            R3_24      R3_24   17.802 MiB    Yes     1     1.398 GiB
            R3_25      R3_25   17.802 MiB    Yes     1     1.398 GiB
            R3_26      R3_26   17.802 MiB    Yes     1     1.398 GiB
            R3_27      R3_27   17.802 MiB    Yes     1     1.398 GiB
            R3_28      R3_28   17.802 MiB    Yes     1     1.398 GiB
            R3_29      R3_29   17.802 MiB    Yes     1     1.398 GiB
             R3_3       R3_3   17.802 MiB    Yes     1    69.259 GiB
            R3_30      R3_30   17.802 MiB    Yes     1     1.398 GiB
            R3_31      R3_31   17.802 MiB     No     1         0   B
            R3_32      R3_32   17.802 MiB     No     1         0   B
             R3_4       R3_4   17.802 MiB    Yes     1    70.059 GiB
             R3_5       R3_5   17.802 MiB    Yes     1    70.858 GiB
             R3_6       R3_6   17.802 MiB    Yes     1    71.658 GiB
             R3_7       R3_7   17.802 MiB    Yes     1    72.457 GiB
           R3_7_1     R3_7_1   17.571 MiB    Yes     1     1.287 GiB
             R3_8       R3_8   17.802 MiB    Yes     1    73.256 GiB
           R3_8_1     R3_8_1   17.338 MiB    Yes     1     2.540 GiB
           R3_8_2     R3_8_2   17.338 MiB     No     1         0   B
             R3_9       R3_9   17.802 MiB    Yes     1    74.056 GiB
       T(abc,ijk)     T3FILE   17.802 MiB    Yes     1     5.494 GiB
     T(abcd,ijkl)          -    2.194 GiB     No     1         0   B
             T3_1       T3_1   17.802 MiB    Yes     1   534.062 MiB
             T3_2       T3_2   17.802 MiB    Yes     1   267.031 MiB
             T3_3       T3_3   17.802 MiB    Yes     1   267.031 MiB
             T3_4       T3_4   17.802 MiB    Yes     1   267.031 MiB
             T3_5       T3_5   17.802 MiB    Yes     1   267.031 MiB
       W(abc,ije)    WABCIJE  750.473 MiB    Yes     1    88.679 GiB
       W(abm,ijk)    WABMIJK    2.648 MiB    Yes     1   320.406 MiB
       X(abc,ije)    XABCIJE  750.473 MiB    Yes     1    65.412 GiB
       X(abm,ijk)    XABMIJK    2.648 MiB    Yes     1   228.685 MiB
       X(mnd,jkl)    XMNDJKL  163.570 KiB     No     1         0   B
       Z(abc,ijk)     Z3FILE   17.802 MiB    Yes     1     2.868 GiB
     Z(abcd,ijkl)          -    2.194 GiB     No     1         0   B
             Z3_1       Z3_1   17.802 MiB    Yes     1   534.062 MiB
             Z3_2       Z3_2   17.802 MiB    Yes     1   534.062 MiB
             Z3_3       Z3_3   17.802 MiB    Yes     1   534.062 MiB
             Z3_4       Z3_4   17.802 MiB    Yes     1   534.062 MiB
             Z3_5       Z3_5   17.802 MiB    Yes     1   534.062 MiB

Simulation and memory analysis took 10.663 seconds

MP2 correlation energy:  -0.380318505910669

Non-iterative calculation of MP2 took 0.094 cpu seconds and 0.005 walltime seconds at 0.238 Gflops/sec

Total MP2 energy: -109.364384777283263

Beginning iterative solution of CC4 equations:

It.  Correlation Energy T1 Residual T2 Residual T3 Residual CPU Time (s) Walltime (s)
-------------------------------------------------------------------------------------
  1  -0.396663790000202 1.54852e-03 2.54889e-03 1.97795e-04     2244.764      142.233
  2  -0.398083569348350 2.73606e-04 4.06559e-04 2.83956e-05     2183.715      139.084
  3  -0.398319004897700 1.06598e-05 4.23096e-05 4.10736e-06     2198.411      139.812
  4  -0.398334298391156 1.91381e-06 1.33785e-06 4.53977e-07     2214.944      140.739
  5  -0.398334054605068 9.05558e-08 7.48416e-08 5.15861e-08     2194.568      140.169

   A    I                     A    I                     A    I                  
-------------------------- -------------------------- -------------------------- 
  29    7  0.0162061978918   41    7  0.0093474207827   53    6  0.0068268210937 
  28    6  0.0162061978784   13    7  0.0085393131011   54    7  0.0068268210923 
  11    5 -0.0130278568908   12    6  0.0085393130818   21    4  0.0063610516059 
  34    4 -0.0106438902132   62    7  0.0078378664493   14    5 -0.0061754495970 
  40    6  0.0093474207853   61    6  0.0078378664492   30    4  0.0048082768502 

   A    B    I    J                     A    B    I    J                  
------------------------------------ ------------------------------------ 
  15   15    6    6 -0.0595753040631   16   15    7    6 -0.0388051474838 
  16   16    7    7 -0.0595753040622   15   16    6    7 -0.0388051474838 
  15    9    6    6 -0.0527223638046   16    9    7    6 -0.0343758358785 
   9   15    6    6 -0.0527223638046    9   16    6    7 -0.0343758358785 
  16   10    7    7 -0.0527223638000   10   15    7    6 -0.0343758358743 
  10   16    7    7 -0.0527223638000   15   10    6    7 -0.0343758358743 
   9    9    6    6 -0.0470689627313   10    9    7    6 -0.0308065676463 
  10   10    7    7 -0.0470689627248 

It.  Correlation Energy T1 Residual T2 Residual T3 Residual CPU Time (s) Walltime (s)
-------------------------------------------------------------------------------------

CC4 iterations converged in 5 cycles and 702.038 seconds (140.408 s/it.) at 2.418 Gflops/sec

Total CC4 energy: -109.382400325977670

             _
Formation of H took 3.162 seconds at 2.897 Gflops/sec

Searching for 1 roots in irrep 7

EOMEE-CCSD guess vector:

   A    I                  
-------------------------- 
   8    7  1.0000000000000 

Beginning iterative solution of EOMEE-CC4 equations:

It.  Correlation Energy R1 Residual R2 Residual R3 Residual CPU Time (s) Walltime (s)
-------------------------------------------------------------------------------------
  1   0.647920954381197 2.69057e-02 4.91012e-02 4.67502e-03     4526.327      287.742
  2   0.575761577850912 6.60042e-02 2.02386e-02 2.83306e-03     4422.862      280.789
  3   0.547133233609621 1.33426e-02 4.71784e-03 3.50304e-03     4460.522      283.416
  4   0.542480535716313 2.33539e-02 2.54450e-03 1.61199e-03     4382.970      279.008
  5   0.532093433039485 6.40933e-02 9.87192e-03 2.77001e-03     4365.882      276.388
  6   0.400767391604124 3.86088e-02 2.05823e-02 1.13677e-02     4334.356      273.409
  7   0.347558854961687 1.06043e-02 6.17040e-03 3.28154e-03     4413.671      277.877
  8   0.343964028799697 6.60843e-03 2.40505e-03 9.84319e-04     4403.607      276.957
  9   0.342795209626744 2.50825e-03 1.21065e-03 5.40639e-04     4479.401      281.188
 10   0.342442071295588 8.39913e-04 6.61935e-04 2.56346e-04     4469.750      280.910
Locking on root: 0.342449379419642
 11   0.342449379419642 2.11546e-04 3.33283e-04 1.02741e-04     4509.006      282.882
 12   0.342417638905123 1.02633e-04 1.14912e-04 3.86921e-05     4481.256      281.138
 13   0.342408927914518 4.55973e-05 4.82997e-05 2.02496e-05     4489.590      282.194
 14   0.342402072914545 2.18602e-05 2.17725e-05 9.29678e-06     4502.538      282.629
 15   0.342398802038276 1.30937e-05 6.37107e-06 3.12402e-06     4545.396      284.616
 16   0.342396732166839 2.57650e-06 3.11567e-06 1.51302e-06     4557.329      285.833

EOMEE-CC4 iterations converged in 16 cycles and 4496.976 seconds (281.061 s/it.) at 2.339 Gflops/sec

EOMEE-CC4 excitation energy:   0.342396732166833 (  9.317088753898801 eV)
Total EOMEE-CC4 energy:      -109.040003593810837

Converged root:

   A    I                     A    I                     A    I                  
-------------------------- -------------------------- -------------------------- 
  10    5  0.5230031141827   13    4 -0.0178686515805   25    3  0.0122446092757 
  16    5  0.4106885716688   17    7  0.0168910482096   43    7  0.0099313510623 
  25    5  0.0869865646001   16    3  0.0163969433190   42    6 -0.0099313510606 
  33    5  0.0463428926329    8    7 -0.0159601542331   33    3  0.0091611146353 
  58    5  0.0184061315461   30    7 -0.0135735159926   21    7 -0.0085810677951 

   A    B    I    J                     A    B    I    J                  
------------------------------------ ------------------------------------ 
  10   10    4    7  0.0642473849609   10   15    4    6  0.0431728574314 
  10   10    7    4  0.0642473849609   15   10    6    4  0.0431728574314 
  10   16    4    7  0.0623268846236   10    9    4    6  0.0401907017673 
  16   10    7    4  0.0623268846236    9   10    6    4  0.0401907017673 
  16   10    4    7  0.0568824589374   16   15    4    6  0.0330451253228 
  10   16    7    4  0.0568824589374   15   16    6    4  0.0330451253228 
  16   16    4    7  0.0528964829653   16    9    4    6  0.0313351660799 
  16   16    7    4  0.0528964829653 

Searching for 2 roots in irrep 8

EOMEE-CCSD guess vector:

   A    I                  
-------------------------- 
   9    7  1.0000000000000 

Beginning iterative solution of EOMEE-CC4 equations:

It.  Correlation Energy R1 Residual R2 Residual R3 Residual CPU Time (s) Walltime (s)
-------------------------------------------------------------------------------------
  1   0.573325430283473 7.66359e-02 4.00033e-02 7.12224e-03     4295.539      272.036
  2   0.500771384122508 2.02981e-01 1.27866e-02 4.33861e-03     4377.225      276.665
  3   0.404067529298336 2.85382e-02 1.04068e-02 4.06613e-03     4362.222      275.876
  4   0.375957816454312 1.34061e-02 2.10567e-03 3.31552e-03     4300.195      272.096
  5   0.370908134293763 6.30715e-03 2.22274e-03 7.65703e-04     4319.411      272.586
  6   0.369590525692977 5.83640e-03 8.74251e-04 4.00983e-04     4357.741      274.078
  7   0.368614680732193 5.59290e-03 1.09198e-03 5.57171e-04     4401.254      276.985
  8   0.367856598734684 4.68037e-03 2.38989e-03 1.05149e-03     4373.051      275.456
  9   0.364972945063677 1.31089e-03 1.88685e-03 8.16988e-04     4378.741      276.103
 10   0.363257754590036 5.44279e-04 1.13423e-03 3.53603e-04     4370.096      275.482
 11   0.363209087886260 2.44876e-04 3.79873e-04 1.51095e-04     4411.534      277.352
Locking on root: 0.363241935174221
 12   0.363241935174221 9.83988e-05 1.60042e-04 8.41115e-05     4419.351      277.802
 13   0.363206126836131 4.68459e-05 7.68637e-05 3.70759e-05     4405.034      276.751
 14   0.363202201885567 6.34461e-06 2.63452e-05 1.43489e-05     4442.548      279.068
 15   0.363209345990603 4.18460e-06 7.33349e-06 6.18775e-06     4505.606      282.363

EOMEE-CC4 iterations converged in 15 cycles and 4140.699 seconds (276.047 s/it.) at 2.350 Gflops/sec

EOMEE-CC4 excitation energy:   0.363209345990597 (  9.883428768213399 eV)
Total EOMEE-CC4 energy:      -109.019190979987073

Converged root:

   A    I                     A    I                     A    I                  
-------------------------- -------------------------- -------------------------- 
  10    6 -0.3706621385209   25    6 -0.0713564641143   65    6 -0.0034431179515 
   9    7  0.3706548639967   32    7  0.0376402991743   64    7  0.0034424277280 
  16    6 -0.3105339977201   33    6 -0.0376390252593   50    7  0.0027410979154 
  15    7  0.3105299118977   58    6 -0.0113160160151   51    6 -0.0027401625127 
  24    7  0.0713620340881   57    7  0.0113154557809   81    7  0.0022371871935 

   A    B    I    J                     A    B    I    J                  
------------------------------------ ------------------------------------ 
  15   29    6    6  0.0102201874409    9   37    3    7  0.0099128112861 
  29   15    6    6  0.0102201874409   37    9    7    3  0.0099128112861 
  16   28    7    7 -0.0102199774333   36    9    6    3 -0.0099125856814 
  28   16    7    7 -0.0102199774333    9   36    3    6 -0.0099125856814 
  36   10    7    3  0.0099132914231   10   42    4    7 -0.0093673367929 
  10   36    3    7  0.0099132914231   42   10    7    4 -0.0093673367929 
  37   10    6    3  0.0099130658184   10   43    4    6 -0.0093670478535 
  10   37    3    6  0.0099130658184 

EOMEE-CCSD guess vector:

   A    I                  
-------------------------- 
  10    6  1.0000000000000 

Beginning iterative solution of EOMEE-CC4 equations:

It.  Correlation Energy R1 Residual R2 Residual R3 Residual CPU Time (s) Walltime (s)
-------------------------------------------------------------------------------------
  1   0.649206099728315 2.91493e-01 2.30598e-02 8.02707e-03     4297.437      271.784
  2   0.455892434226648 8.23070e-02 8.25776e-03 3.84137e-03     4300.608      272.035
  3   0.393318321382651 2.19367e-02 4.64868e-03 2.78137e-03     4267.229      269.612
  4   0.381922405912807 6.25218e-03 2.87575e-03 1.71902e-03     4274.593      270.367
  5   0.378678046405560 5.63187e-04 8.55845e-04 4.16753e-04     4293.512      271.799
  6   0.378243529490744 9.45424e-04 2.71947e-04 1.75396e-04     4291.958      270.678
  7   0.378284486757386 2.76163e-04 1.68502e-04 5.43496e-05     4299.568      271.293
Locking on root: 0.378289974067461
  8   0.378289974067461 6.27495e-05 6.03984e-05 2.11640e-05     4314.289      272.074
  9   0.378287371151521 2.64629e-05 2.35874e-05 1.35621e-05     4336.590      273.706
 10   0.378287215250759 1.24636e-05 9.32997e-06 5.31755e-06     4369.400      275.416
 11   0.378288048729678 1.42185e-06 3.75576e-06 2.02888e-06     4376.813      275.074

EOMEE-CC4 iterations converged in 11 cycles and 2993.839 seconds (272.167 s/it.) at 2.376 Gflops/sec

EOMEE-CC4 excitation energy:   0.378288048729672 ( 10.293741129620994 eV)
Total EOMEE-CC4 energy:      -109.004112277247998

Converged root:

   A    I                     A    I                     A    I                  
-------------------------- -------------------------- -------------------------- 
  10    6 -0.3745472930568   24    7 -0.0637175452250   42    5  0.0046125495998 
   9    7 -0.3745267244463   33    6 -0.0328817015356   26    3  0.0045192757690 
  16    6 -0.3021406992540   32    7 -0.0328771449730   36    4  0.0043673597964 
  15    7 -0.3021339934489   58    6 -0.0099138940656   65    6 -0.0041633125903 
  25    6 -0.0637218491551   57    7 -0.0099121460999   64    7 -0.0041620136289 

   A    B    I    J                     A    B    I    J                  
------------------------------------ ------------------------------------ 
   9   10    4    5 -0.0280480130919   16    9    4    5 -0.0257345422939 
  10    9    5    4 -0.0280480130919    9   16    5    4 -0.0257345422939 
   9   10    5    4 -0.0280476942464   10   15    5    4 -0.0257286173218 
  10    9    4    5 -0.0280476942464   15   10    4    5 -0.0257286173218 
   9   16    4    5 -0.0261939012832   15   16    5    4 -0.0231502286009 
  16    9    5    4 -0.0261939012832   16   15    4    5 -0.0231502286009 
  10   15    4    5 -0.0261904107542   16   15    5    4 -0.0231471616939 
  15   10    5    4 -0.0261904107542 

 @CHECKOUT-I, Total execution time (CPU/WALL):   195647.85/   12349.53 seconds.
--executable xncc finished with status     0 in    12350.92 seconds (walltime).
  The final electronic energy is      -109.004112277247998 a.u. 
  This computation required                        12359.38 seconds (walltime).
