 --invoking executable--
/home/CEISAM/blondel-a/soft/cfour2.1/cfour2.1-serial-mkl/bin/xjoda


   *************************************************************************
         <<<     CCCCCC     CCCCCC   |||     CCCCCC     CCCCCC   >>>
       <<<      CCC        CCC       |||    CCC        CCC         >>>
      <<<      CCC        CCC        |||   CCC        CCC            >>>
    <<<        CCC        CCC        |||   CCC        CCC              >>>
      <<<      CCC        CCC        |||   CCC        CCC            >>>
       <<<      CCC        CCC       |||    CCC        CCC         >>>
         <<<     CCCCCC     CCCCCC   |||     CCCCCC     CCCCCC   >>>
   *************************************************************************

     ****************************************************************
     * CFOUR Coupled-Cluster techniques for Computational Chemistry *
     ****************************************************************
 

   Department of Chemistry                Institut fuer Physikalische Chemie
   University of Florida                  Universitaet Mainz
   Gainesville, FL 32611, USA             D-55099 Mainz, Germany

   Department of Chemistry                Fakultaet fuer Chemie und Biowiss.
   Johns Hopkins University               Karlsruher Institut fuer Technologie
   Baltimore, MD 21218, USA               D-76131 Karlsruhe, Germany

   Department of Chemistry                Department of Physical Chemistry
   Southern Methodist University          Eotvos Lorand University
   Dallas, TX 75275, USA                  H-1053 Budapest, Hungary

 
                       Version 2.1
 
                     cribbar040                                        
                     Tue Mar 16 09:59:27 CET 2021                      
                     integer*8 version is running
 
********************************************************************************
*                          Input from ZMAT file                                *
********************************************************************************
Ketene -GS                                                                      
O    0.0000000000            0.0000000000           -0.1320966888               
H    0.0000000000            1.4315287786            0.9797000618               
H    0.0000000000           -1.4315287786            0.9797000618               
                                                                                
*CFOUR(COORD=CARTESIAN,UNITS=BOHR                                               
       MEMORY=250,MEM_UNIT=GB,CC_PROG=NCC                                       
       FROZEN_CORE=1                                                            
       CALC=CC3,BASIS=AUG-PVTZ                                                  
       SCF_CONV=8,CC_CONV=7,ESTATE_CONV=5,ESTATE_MAXCYC=120                     
       EXCITE=EOMEE,ESTATE_SYM=1/1/1/1)                                         
                                                                                
********************************************************************************
    -------------------------------------------------------------------
                    CFOUR Control Parameters 
    -------------------------------------------------------------------
        External           Internal           Value            Units
          Name               Name
    -------------------------------------------------------------------
       ABCDTYPE             IABCDT         STANDARD    [  0]    ***   
       ANHARMONIC           IANHAR         OFF         [  0]    ***   
       ANH_ALGORIT          IANALG         STANDARD    [  0]    ***   
       ANH_DERIVAT          IANDER         SECOND      [  1]    ***   
       ANH_MODE             ANHMOD         VIBRATION   [  0]    ***   
       ANH_STEPSIZ          ICUBST             50000          x 10-6  
       ANH_SYMMETR          IANHSM         ABELIAN     [  0]    ***   
       AO_LADDERS           IAOLAD         SINGLEPASS  [  1]    ***   
       AV_SCF               IAVSCF         OFF         [  0]    ***   
       BASIS                IBASIS         AUG-PVTZ    [ 34]    ***   
       BOTHVECTORS          BOTHVC         OFF         [  0]    ***   
       BOX_POTENT           IPIAB          OFF         [  0]    ***   
       BREIT                IBREIT         OFF         [  0]    ***   
       BRUCK_CONV           IBRTOL          10D-  4             ***   
       BRUECKNER            IBRKNR         OFF         [  0]    ***   
       BUFFERSIZE           IBUFFS              4096            ***   
       CACHE_RECS           ICHREC             10               ***   
       CALCLEVEL            ICLLVL         CC3         [ 32]    ***   
       CCORBOPT             ICCORB         OFF         [  0]  x 0.01  
       CC_CONV              ICCCNV          10D-  7             ***   
       CC_EXPORDER          ICCEOR              5               ***   
       CC_EXTRAPOL          ICCEXT         DIIS        [  1]    ***   
       CC_GUESS             ICCGES         MP2         [  0]    ***   
       CC_MAXCYC            ICCCYC            100              cycles 
       CC_PROGRAM           ICCPRO         NCC         [  5]    ***   
       CHARGE               ICHRGE              0               ***   
       CHOLESKY             ICHOLE         OFF         [  0]    ***   
       CIS_CONV             ICISTL              5               ***   
       COMM_SIZE            IPSIZE            ***               ***   
       CONSTANT             ICONST         OLD         [  1]    ***   
       CONTINUUM            ICONTU         NONE        [  0]    ***   
       CONTRACTION          ICNTYP         GENERAL     [  1]    ***   
       COORDINATES          ICOORD         CARTESIAN   [  1]    ***   
       CPHF_CONVER          ICPHFT          10D- 16             ***   
       CPHF_MAXCYC          ICPHFC             64              cycles 
       CUBIC                ICUBIC         OFF         [  0]    ***   
       CURVILINEAR          ICURVY         OFF         [  0]    ***   
       DBOC                 IDBOC          OFF         [  0]    ***   
       DCT                  IDCT           OFF         [  0]    ***   
       DERIV_LEV            IDRLVL         ZERO        [  0]    ***   
       DEVMEM_SIZE          IDVMEM         *********           MByte  
       DIAG_MRCC            IEOMST          10D-  0             ***   
       DIFF_TYPE            IDIFTY         RELAXED     [  0]    ***   
       DIRECT               IDIRCT         OFF         [  0]    ***   
       DROPMO               IDRPMO      NONE         
       ECP                  IECP           OFF         [  0]    ***   
       EIGENVECTOR          IVEC                1               ***   
       EL_ANHARM            IELANH         OFF         [  0]    ***   
       EOMFOLLOW            IEOMSR         ENERGY      [  0]    ***   
       EOMIP                IEOMIP         OFF         [  0]    ***   
       EOMLEVEL             HBARFM         SAME        [  0]    ***   
       EOM_MRCC             IMRCCE         NEW         [  1]    ***   
       EOM_NONIT            EOMNON         OFF         [  0]    ***   
       EOM_NSING            IEOMSI          10D-  0             ***   
       EOM_NSTATES          IMRCCD         DAVIDSON    [  0]    ***   
       EOM_NTRIP            IEOMTR          10D-  0             ***   
       EOM_ORDER            IEXORD         ENERGY      [  0]    ***   
       EOM_PROPSTA          IEOMST              0               ***   
       ESTATE_CONV          IEXTOL          10D-  5             ***   
       ESTATE_DIAG          IEXDIG         ITERATIVE   [  0]    ***   
       ESTATE_LOCK          IESLOC         ON          [  1]    ***   
       ESTATE_MAXC          IEXMXC            120               ***   
       ESTATE_PROP          IEXPRP         OFF         [  0]    ***   
       ESTATE_SYM           IEXSYM   1,  1,  1,  1,
       EVAL_HESS            IRECAL              0            # of cyc.
       EXCITATION           IEXCIT              0               ***   
       EXCITE               IEXCIT         EOMEE       [  3]    ***   
       EXTERN_POT           IEXPOT         OFF         [  0]    ***   
       FCGRADNEW            IFCGNW         OFF         [  0]    ***   
       FC_FIELD             IFINFC              0             x 10-6  
       FD_CALTYPE           IFDCAL         GRADONLY    [  0]    ***   
       FD_PROJECT           IFDPRJ         OFF         [  1]    ***   
       FD_STEPSIZE          IDISFD              0            10-4 bohr
       FD_USEGROUP          IFDGRP         FULL        [  0]    ***   
       FILE_RECSIZ          IFLREC              4096           words  
       FINITE_PERT          IFIPER              0             x 10-6  
       FIXGEOM              IFIXGM         OFF         [  0]    ***   
       FOCK                 IFOCK          AO          [  1]    ***   
       FREQ_ALGORI          IVIALG         STANDARD    [  0]    ***   
       FROZEN_CORE          IFROCO         ON          [  1]    ***   
       GAMMA_ABCD           IGABCD         STORE       [  0]    ***   
       GAMMA_ABCI           IGABCI         STORE       [  0]    ***   
       GENBAS_1             IGNBS1              0               ***   
       GENBAS_2             IGNBS2              0               ***   
       GENBAS_3             IGNBS3              0               ***   
       GENBAS_4             IGNBS4              0               ***   
       GEO_CONV             ICONTL              5              H/bohr 
       GEO_MAXCYC           IOPTCY             50               ***   
       GEO_MAXSTEP          IMXSTP            300            millibohr
       GEO_METHOD           INR            SINGLE_POINT[  5]    ***   
       GIAO                 IGIAO          OFF         [  1]    ***   
       GIMIC                IGIMIC         OFF         [  0]    ***   
       GRID                 IGRID          OFF         [  0]    ***   
       GRID_ALGO            IGALGO         SERIAL      [  0]    ***   
       GUESS                IGUESS         MOREAD      [  0]    ***   
       HBAR                 IHBAR          ON          [  1]    ***   
       HESS_TYPE            IHESTP         SCF         [  0]    ***   
       HF2_FILE             IHF2Fl         USE         [  1]    ***   
       HFSTABILITY          ISTABL         OFF         [  0]    ***   
       INCORE               INCORE         OFF         [  0]    ***   
       INPUT_MRCC           IMRCC          ON          [  1]    ***   
       INTEGRALS            INTTYP         VMOL        [  1]    ***   
       JODA_PRINT           IJPRNT              0               ***   
       KEYWORD_OUT          IDMPKW         NO          [  0]    ***   
       LINDEP_TOL           ILINDP              8               ***   
       LINEQ_CONV           IZTACN          10D-  7           cycles  
       LINEQ_EXPOR          ILMAXD              5               ***   
       LINEQ_MAXCY          ILMAXC            100               ***   
       LINEQ_TYPE           ILTYPE         DIIS        [  1]    ***   
       LOCK_ORBOCC          ILOCOC         OFF         [  0]    ***   
       MEMORY_SIZE          IMEMSZ         *********           words  
       MEM_UNIT             IMEMU          GB          [  3]    ***   
       MRCC                 IMRCCC         OFF         [  0]    ***   
       MULTIPLICTY          IMULTP              1               ***   
       NACOUPLING           IVCOUP         OFF         [  0]    ***   
       NEGEVAL              IDIE           ABORT       [  0]    ***   
       NEWNORM              INEWNO         OFF         [  0]    ***   
       NON-HF               INONHF         OFF         [  0]    ***   
       NTOP_TAMP            ITOPT2             15               ***   
       NUC_MODEL            INUCMO         POINT       [  0]    ***   
       OCCUPATION           IOCCU   ESTIMATED BY SCF 
       OPEN-SHELL           IOPEN          SPIN-ORBITAL[  0]    ***   
       OPTVIB               IOPTVB         OFF         [  0]    ***   
       ORBITALS             IORBTP         STANDARD    [  0]    ***   
       PARALLEL             IPARAL         ON          [  1]    ***   
       PARA_INT             IPINTS         ON          [  1]    ***   
       PARA_PRINT           IPPRIN              0               ***   
       PERT_ORB             IPTORB         STANDARD    [  0]    ***   
       POINTS               IGRDFD              0               ***   
       PRINT                IPRNT               0               ***   
       PROPS                IPROPS         OFF         [  0]    ***   
       PROP_INTEGR          IINTYP         INTERNAL    [  0]    ***   
       PSI                  IPSI           OFF         [  0]    ***   
       QC_ALG               IQCALG         FLM         [  0]    ***   
       QC_LINALG            IQCLIN         TRIDIAG     [  2]    ***   
       QC_MAXCYC            IQCMAX          10D-100           cycles  
       QC_MAXSCFCY          IQCMSC          10D- 15           cycles  
       QC_RTRUST            IQCRTR          10D-  0           x 10-3  
       QC_SKIPSCF           IQCSKI         OFF         [  0]    ***   
       QC_START             IQCSTA          10D-  1             ***   
       QRHFGUESS            IQGUES         OFF         [  0]    ***   
       QUARTIC              IQUART         OFF         [  0]    ***   
       RAMAN_INT            IRAMIN         OFF         [  0]    ***   
       RAMAN_ORB            IRAMRE         UNRELAXED   [  0]    ***   
       RDO                  IRDOFM         OFF         [  0]    ***   
       REDUCE_REPR          REDREP         Ir          [  0]    ***   
       REFERENCE            IREFNC         RHF         [  0]    ***   
       RELATIVIST           IRELAT         OFF         [  0]    ***   
       RELAX_DENS           IRDENS         OFF         [  0]    ***   
       RESET_FLAGS          IRESET         OFF         [  0]    ***   
       RESTART_CC           ICCRES         OFF         [  0]    ***   
       ROT_EVEC             ROTVEC              0               ***   
       SAVE_INTS            ISVINT         OFF         [  0]    ***   
       SCALE_ON             ISTCRT              0               ***   
       SCF_CONV             ISCFCV          10D-  8             ***   
       SCF_DAMPING          IDAMP               0             x 10-3  
       SCF_EXPORDE          IRPPOR              6               ***   
       SCF_EXPSTAR          IRPPLS              8               ***   
       SCF_EXTRAPO          IRPP           ON          [  1]    ***   
       SCF_MAXCYC           ISCFCY            150              cycles 
       SCF_NOSTOP           ISCFST         OFF         [  0]    ***   
       SCF_PRINT            ISCFPR              0               ***   
       SCF_PROG             ISCFPR         SCF         [  0]    ***   
       SD_FIELD             IFINSD              0             x 10-6  
       SOPERT               IPERSO         OFF         [  0]    ***   
       SPHERICAL            IDFGHI         ON          [  1]    ***   
       SPINORBIT            ISOCAL         OFF         [  0]    ***   
       SPINROTATIO          ISRCON         OFF         [  0]    ***   
       SPIN_FLIP            ISPFLP         OFF         [  0]    ***   
       SPIN_ORBIT           ISPORB         OFF         [  0]    ***   
       SPIN_SCAL            ISCSMP         OFF         [  0]    ***   
       STEEPSCALE           ISTPSC              1000          x 10-3  
       SUBGROUP             ISUBGP         DEFAULT     [  0]    ***   
       SUBGRPAXIS           ISBXYZ         X           [  0]    ***   
       SYMMETRY             ISYM           ON          [  0]    ***   
       SYM_CHECK            ISYMCK         OVERRIDE    [  1]    ***   
       T3_EXTRAPOL          IT3EXT         ON          [  1]    ***   
       T4_EXTRAPOL          IT4EXP         OFF         [  0]    ***   
       TAMP_SUM             IEVERY              5               ***   
       TESTSUITE            ITESTS         OFF         [  0]    ***   
       THERMOCH             ITHERM         OFF         [  0]    ***   
       TOL_CHOLESK          ITOLCH          10D-  4             ***   
       TRANGRAD             IRESRM         OFF         [  0]    ***   
       TRANS_INV            ITRAIN         USE         [  0]    ***   
       TREAT_PERT           ITREAT         SIMULTANEOUS[  0]    ***   
       TRIP_ALGORI          ITRALG         NORMAL      [  0]    ***   
       UIJ_THRESHO          IUIJTH              1               ***   
       UNITS                IUNITS         BOHR        [  1]    ***   
       UNOS                 IUNOS          OFF         [  0]    ***   
       UPDATE_HESS          IHUPDT         ON          [  1]    ***   
       VIBPHASE             ISETPH         STANDARD    [  0]    ***   
       VIBRATION            IVIB           NO          [  0]    ***   
       VIB_ALGORIT          IGEALG         STANDARD    [  0]    ***   
       VNATORB              IVNORB         OFF         [  0]    ***   
       VTRAN                IVTRAN         FULL/PARTIAL[  0]    ***   
       XFIELD               IXEFLD              0             x 10-6  
       XFORM_TOL            IXFTOL          10D- 11             ***   
       YFIELD               IYEFLD              0             x 10-6  
       ZFIELD               IZEFLD              0             x 10-6  
       ZSCALE_EXP           IZEXPS         OFF         [  0]    ***   
    -------------------------------------------------------------------
  @GETXYZ-I,     3 atoms read from ZMAT.
   Rotational constants (in cm-1): 
          9.4902686961            14.5740134783            27.2065789719
   Rotational constants (in MHz): 
     284511.1378075283        436917.9935688575        815632.8326432100
********************************************************************************
   The full molecular point group is C2v .
   The largest Abelian subgroup of the full molecular point group is C2v .
   The computational point group is C2v .
********************************************************************************


 ----------------------------------------------------------------
         Coordinates used in calculation (QCOMP) 
 ----------------------------------------------------------------
 Z-matrix   Atomic            Coordinates (in bohr)
  Symbol    Number           X              Y              Z
 ----------------------------------------------------------------
     O         8         0.00000000     0.00000000    -0.12442659
     H         1         0.00000000     1.43152878     0.98737016
     H         1         0.00000000    -1.43152878     0.98737016
 ----------------------------------------------------------------
 
   Interatomic distance matrix (Angstroms) 
 
                 O             H             H    
                [ 1]        [ 2]        [ 3]
  O    [ 1]     0.00000
  H    [ 2]     0.95916     0.00000
  H    [ 3]     0.95916     1.51506     0.00000
 rotcon2
   Rotational constants (in cm-1): 
          9.4902686961            27.2065789719            14.5740134783
   Rotational constants (in MHz): 
     284511.1378075283        815632.8326432100        436917.9935688575
  There is   1 frozen-core orbital.
  There are   92 basis functions.
 @GEOPT-W, Archive file not created for single-point calculation.
 @CHECKOUT-I, Total execution time (CPU/WALL):        0.17/       1.82 seconds.
--executable xjoda finished with status     0 in        2.45 seconds (walltime).
 --invoking executable--
/home/CEISAM/blondel-a/soft/cfour2.1/cfour2.1-serial-mkl/bin/xvmol
 SERIAL VERSION OF MOLECULE STARTED
********************************************************************************
                    INPUT FROM MOL FILE
********************************************************************************
INTGRL        1    0    1    0    0    0    0    0    0                         
         *** CFOUR Program System (Release V0.1) ***                            
Ketene -GS                                                                      
    2    2 X  Y       0.10E-08              0    0                              
   9999.00      3.00                                                            
          8.00000000    1    4    1    1    1    1                              
O #1   0.000000000000000   0.000000000000000  -0.124426592697155                
   11    5                                                                      
   15330.0000000000       5.080000000000000E-004 -1.150000000000000E-004        
  0.000000000000000E+000  0.000000000000000E+000  0.000000000000000E+000        
   2299.00000000000       3.929000000000000E-003 -8.950000000000000E-004        
  0.000000000000000E+000  0.000000000000000E+000  0.000000000000000E+000        
   522.400000000000       2.024300000000000E-002 -4.636000000000000E-003        
  0.000000000000000E+000  0.000000000000000E+000  0.000000000000000E+000        
   147.300000000000       7.918100000000000E-002 -1.872400000000000E-002        
  0.000000000000000E+000  0.000000000000000E+000  0.000000000000000E+000        
   47.5500000000000       0.230687000000000      -5.846300000000000E-002        
  0.000000000000000E+000  0.000000000000000E+000  0.000000000000000E+000        
   16.7600000000000       0.433118000000000      -0.136463000000000             
  0.000000000000000E+000  0.000000000000000E+000  0.000000000000000E+000        
   6.20700000000000       0.350260000000000      -0.175740000000000             
  0.000000000000000E+000  0.000000000000000E+000  0.000000000000000E+000        
   1.75200000000000       4.272800000000000E-002  0.160934000000000             
   1.00000000000000       0.000000000000000E+000  0.000000000000000E+000        
  0.688200000000000      -8.154000000000000E-003  0.603418000000000             
  0.000000000000000E+000  0.000000000000000E+000  0.000000000000000E+000        
  0.238400000000000       2.381000000000000E-003  0.378765000000000             
  0.000000000000000E+000   1.00000000000000       0.000000000000000E+000        
  7.376000000000001E-002  0.000000000000000E+000  0.000000000000000E+000        
  0.000000000000000E+000  0.000000000000000E+000   1.00000000000000             
    6    4                                                                      
   34.4600000000000       1.592800000000000E-002  0.000000000000000E+000        
  0.000000000000000E+000  0.000000000000000E+000                                
   7.74900000000000       9.974000000000000E-002  0.000000000000000E+000        
  0.000000000000000E+000  0.000000000000000E+000                                
   2.28000000000000       0.310492000000000       0.000000000000000E+000        
  0.000000000000000E+000  0.000000000000000E+000                                
  0.715600000000000       0.491026000000000        1.00000000000000             
  0.000000000000000E+000  0.000000000000000E+000                                
  0.214000000000000       0.336337000000000       0.000000000000000E+000        
   1.00000000000000       0.000000000000000E+000                                
  5.974000000000000E-002  0.000000000000000E+000  0.000000000000000E+000        
  0.000000000000000E+000   1.00000000000000                                     
    3    3                                                                      
   2.31400000000000        1.00000000000000       0.000000000000000E+000        
  0.000000000000000E+000                                                        
  0.645000000000000       0.000000000000000E+000   1.00000000000000             
  0.000000000000000E+000                                                        
  0.214000000000000       0.000000000000000E+000  0.000000000000000E+000        
   1.00000000000000                                                             
    2    2                                                                      
   1.42800000000000        1.00000000000000       0.000000000000000E+000        
  0.500000000000000       0.000000000000000E+000   1.00000000000000             
          1.00000000    1    3    1    1    1                                   
H #2   0.000000000000000   1.431528778600000   0.987370157902845                
    6    4                                                                      
   33.8700000000000       6.068000000000000E-003  0.000000000000000E+000        
  0.000000000000000E+000  0.000000000000000E+000                                
   5.09500000000000       4.530800000000000E-002  0.000000000000000E+000        
  0.000000000000000E+000  0.000000000000000E+000                                
   1.15900000000000       0.202822000000000       0.000000000000000E+000        
  0.000000000000000E+000  0.000000000000000E+000                                
  0.325800000000000       0.503903000000000        1.00000000000000             
  0.000000000000000E+000  0.000000000000000E+000                                
  0.102700000000000       0.383421000000000       0.000000000000000E+000        
   1.00000000000000       0.000000000000000E+000                                
  2.526000000000000E-002  0.000000000000000E+000  0.000000000000000E+000        
  0.000000000000000E+000   1.00000000000000                                     
    3    3                                                                      
   1.40700000000000        1.00000000000000       0.000000000000000E+000        
  0.000000000000000E+000                                                        
  0.388000000000000       0.000000000000000E+000   1.00000000000000             
  0.000000000000000E+000                                                        
  0.102000000000000       0.000000000000000E+000  0.000000000000000E+000        
   1.00000000000000                                                             
    2    2                                                                      
   1.05700000000000        1.00000000000000       0.000000000000000E+000        
  0.247000000000000       0.000000000000000E+000   1.00000000000000             
FINISH                                                                          
 
********************************************************************************
 ONE- AND TWO-ELECTRON INTEGRALS OVER SYMMETRY-ADAPTED AOS ARE CALCULATED.

  SPHERICAL HARMONICS ARE USED.
  
  INTEGRALS LESS THAN  0.10E-13 ARE NEGLECTED.

  NUCLEAR REPULSION ENERGY :    9.1765804707 A.U.
  @MOLECU-I, ONE ELECTRON INTEGRALS (CPU/WALL):        0.04/       0.07 SECONDS.
  @TWOEL-I,     262933 INTEGRALS OF SYMMETRY TYPE  I I I I
  @TWOEL-I,     865293 INTEGRALS OF SYMMETRY TYPE  I J I J
  @TWOEL-I,     466389 INTEGRALS OF SYMMETRY TYPE  I I J J
  @TWOEL-I,     575256 INTEGRALS OF SYMMETRY TYPE  I J K L
  @TWOEL-I, TOTAL NUMBER OF 2-E INTEGRALS    2169871.
  @MOLECU-I, TWO ELECTRON INTEGRALS (CPU/WALL):       18.39/       1.04 SECONDS.
 @CHECKOUT-I, Total execution time (CPU/WALL):       18.44/       1.14 seconds.

Running with 20 threads/proc

--executable xvmol finished with status     0 in        1.75 seconds (walltime).
 --invoking executable--
/home/CEISAM/blondel-a/soft/cfour2.1/cfour2.1-serial-mkl/bin/xvmol2ja
 @GETMEM-I,  Allocated  238418 MB of main memory.
 @CHECKOUT-I, Total execution time (CPU/WALL):        0.34/       0.58 seconds.
--executable xvmol2ja finished with status     0 in        1.15 seconds (walltime).
 --invoking executable--
/home/CEISAM/blondel-a/soft/cfour2.1/cfour2.1-serial-mkl/bin/xvscf
  There are   92 functions in the AO basis.

  There are 4 irreducible representations.

       Irrep        # of functions
         1                 35
         2                 18
         3                 27
         4                 12


  Parameters for SCF calculation: 
        SCF reference function:  RHF  
  Maximum number of iterations:  150
     Full symmetry point group: C2v 
     Computational point group: C2v 
        Initial density matrix: MOREAD                 
     SCF convergence tolerance: 10**(- 8)
  DIIS convergence acceleration:  ON
          Latest start for DIIS:   8
                     DIIS order:   6

  Memory information:     401180 words required.
  Fock matrices are constructed from AO integral file.
 @GETMEM-I,  Allocated       3 MB of main memory.
  Initialization and symmetry analysis required      0.003 seconds.

  @INITGES-I, Occupancies from core Hamiltonian:

          Alpha population by irrep:   3    1    1    0
           Beta population by irrep:   3    1    1    0


 total no. of electrons in initial guess :  0.000000000000000E+000
  --------------------------------------------------------------------
  Iteration         Total Energy            Largest Density Difference
  --------------------------------------------------------------------
       0             9.176580470691922              0.0000000000D+00
   current occupation vector 
     3  1  1  0
     3  1  1  0
       1           -61.321567078149734              0.1227179809D+02
   current occupation vector 
     3  1  1  0
     3  1  1  0
       2           -63.703478878135662              0.3388566478D+02
   current occupation vector 
     3  0  2  0
     3  0  2  0
       3           -70.945556070474098              0.3388588512D+02
   current occupation vector 
     3  1  1  0
     3  1  1  0
       4           -67.933049998589411              0.2854019866D+02
   current occupation vector 
     3  0  2  0
     3  0  2  0
       5           -72.333304653154727              0.2853969670D+02
   current occupation vector 
     3  1  1  0
     3  1  1  0
       6           -68.914822887955879              0.2669815983D+02
   current occupation vector 
     3  0  2  0
     3  0  2  0
       7           -72.705100216541965              0.2669837475D+02
   current occupation vector 
     3  1  1  0
     3  1  1  0
       8           -69.176648139040466              0.2626250513D+02
   current occupation vector 
     3  0  2  0
     3  0  2  0
       9           -75.826173496346200              0.2626348917D+02
   current occupation vector 
     3  1  1  0
     3  1  1  0
      10           -76.053721517722863              0.4680654876D+00
   current occupation vector 
     3  1  1  0
     3  1  1  0
      11           -76.060347202365534              0.6705681645D-01
   current occupation vector 
     3  1  1  0
     3  1  1  0
      12           -76.060455386100443              0.9994385577D-02
   current occupation vector 
     3  1  1  0
     3  1  1  0
      13           -76.060464827474902              0.3927110201D-02
   current occupation vector 
     3  1  1  0
     3  1  1  0
      14           -76.060466315635253              0.2205535115D-02
   current occupation vector 
     3  1  1  0
     3  1  1  0
      15           -76.060466331815647              0.2628798230D-03
   current occupation vector 
     3  1  1  0
     3  1  1  0
      16           -76.060466332028170              0.1420125098D-04
   current occupation vector 
     3  1  1  0
     3  1  1  0
      17           -76.060466332048492              0.7657480547D-05
   current occupation vector 
     3  1  1  0
     3  1  1  0
      18           -76.060466332048534              0.1820066419D-05
   current occupation vector 
     3  1  1  0
     3  1  1  0
      19           -76.060466332048762              0.3147259759D-06
   current occupation vector 
     3  1  1  0
     3  1  1  0
      20           -76.060466332049160              0.2341016819D-07
   current occupation vector 
     3  1  1  0
     3  1  1  0

  SCF has converged.

 Density matrix saved to file den.dat
 total electron number:   9.99999999999997     
     E(SCF)=       -76.060466332049302              0.4719836771D-08

  Eigenvector printing suppressed.

 @PUTMOS-I, Writing converged MOs to NEWMOS. 
 @PUTMOS-I, Symmetry   1 Full Blocks  8 Partial Blocksize   3
 @PUTMOS-I, Symmetry   2 Full Blocks  4 Partial Blocksize   2
 @PUTMOS-I, Symmetry   3 Full Blocks  6 Partial Blocksize   3
 @PUTMOS-I, Symmetry   4 Full Blocks  3 Partial Blocksize   0
 @PUTFOCK-I, Writing converged Fock matrix to NEWFOCK. 
 @PUTFOCK-I, Symmetry   1 Full Blocks  8 Partial Blocksize   3
 @PUTFOCK-I, Symmetry   2 Full Blocks  4 Partial Blocksize   2
 @PUTFOCK-I, Symmetry   3 Full Blocks  6 Partial Blocksize   3
 @PUTFOCK-I, Symmetry   4 Full Blocks  3 Partial Blocksize   0


 
  ORBITAL EIGENVALUES (ALPHA)  (1H = 27.2113834 eV)

       MO #        E(hartree)               E(eV)           FULLSYM    COMPSYM
       ----   --------------------   --------------------   -------   ---------
    1     1         -20.5676125085        -559.6731895916      A1        A1 (1)
    2     2          -1.3527399854         -36.8099263838      A1        A1 (1)
    3    54          -0.7164334547         -19.4951454167      B2        B2 (3)
    4     3          -0.5849370113         -15.9169452806      A1        A1 (1)
    5    36          -0.5102575293         -13.8848132617      B1        B1 (2)
  +++++++++++++++++++++++++++++++++++++++++++++++++++++++++++++++++++++++++++++
    6     4           0.0294082370           0.8002388111      A1        A1 (1)
    7    55           0.0476882064           1.2976620680      B2        B2 (3)
    8     5           0.1359281134           3.6987920099      A1        A1 (1)
    9    37           0.1586372239           4.3167383215      B1        B1 (2)
   10     6           0.1751861540           4.7670576030      A1        A1 (1)
   11    56           0.1830229305           4.9803071324      B2        B2 (3)
   12    57           0.2273956426           6.1877500151      B2        B2 (3)
   13     7           0.2449923924           6.6665819188      A1        A1 (1)
   14    81           0.2653260400           7.2198886008      A2        A2 (4)
   15    38           0.3003415504           8.1727090799      B1        B1 (2)
   16     8           0.3103486177           8.4450152242      A1        A1 (1)
   17    58           0.3658266327           9.9546487591      B2        B2 (3)
   18     9           0.4377884286          11.9128287796      A1        A1 (1)
   19    59           0.4664504196          12.6927612039      B2        B2 (3)
   20    60           0.5994562026          16.3120325609      B2        B2 (3)
   21    10           0.6584606771          17.9176259375      A1        A1 (1)
   22    11           0.7082091150          19.2713497545      A1        A1 (1)
   23    82           0.7224386780          19.6585558500      A2        A2 (4)
   24    39           0.7315957081          19.9077313068      B1        B1 (2)
   25    12           0.8310077736          22.6128711360      A1        A1 (1)
   26    40           0.8463600883          23.0306288584      B1        B1 (2)
   27    13           0.8916943287          24.2642362546      A1        A1 (1)
   28    61           0.9129301678          24.8420928136      B2        B2 (3)
   29    41           0.9183006186          24.9882302093      B1        B1 (2)
   30    83           0.9225173463          25.1029732023      A2        A2 (4)
   31    62           0.9308211839          25.3289321113      B2        B2 (3)
   32    14           0.9620330599          26.1782504370      A1        A1 (1)
   33    15           1.0217717909          27.8038239506      A1        A1 (1)
   34    63           1.0438971096          28.4058844803      B2        B2 (3)
   35    42           1.0828860963          29.4668287451      B1        B1 (2)
   36    64           1.1090787335          30.1795666380      B2        B2 (3)
   37    84           1.1764651281          32.0132436575      A2        A2 (4)
   38    16           1.1822083013          32.1695233444      A1        A1 (1)
   39    65           1.2601740692          34.2910797482      B2        B2 (3)
   40    85           1.5108806124          41.1131516154      A2        A2 (4)
   41    17           1.5362443663          41.8033344482      A1        A1 (1)
   42    43           1.5844218215          43.1143096511      B1        B1 (2)
   43    18           1.8038846134          49.0861958256      A1        A1 (1)
   44    66           1.8202169822          49.5306221745      B2        B2 (3)
   45    67           1.9872776647          54.0765744570      B2        B2 (3)
   46    19           2.1189047879          57.6583305723      A1        A1 (1)
   47    44           2.2626988830          61.5711668248      B1        B1 (2)
   48    86           2.3162322744          63.0278844615      A2        A2 (4)
   49    20           2.3260306897          63.2945128966      A1        A1 (1)
   50    21           2.4185797695          65.8129013919      A1        A1 (1)
   51    45           2.4206617744          65.8695556249      B1        B1 (2)
   52    68           2.4427504911          66.4706201642      B2        B2 (3)
   53    22           2.4790947805          67.4595985582      A1        A1 (1)
   54    69           2.6763116647          72.8261428068      B2        B2 (3)
   55    46           2.6976845994          73.4077299278      B1        B1 (2)
   56    23           2.7723483654          75.4394342895      A1        A1 (1)
   57    70           2.8178783750          76.6783688361      B2        B2 (3)
   58    87           2.8849385166          78.5031680600      A2        A2 (4)
   59    71           3.6549167086          99.4553398534      B2        B2 (3)
   60    24           3.7453741849         101.9168129218      A1        A1 (1)
   61    88           4.0183502679         109.3448697741      A2        A2 (4)
   62    47           4.0851536669         111.1626826788      B1        B1 (2)
   63    25           4.1673579200         113.3995741267      A1        A1 (1)
   64    72           4.2489778194         115.6205645027      B2        B2 (3)
   65    48           4.2905682719         116.7522982508      B1        B1 (2)
   66    26           4.3755642705         119.0651569555      A1        A1 (1)
   67    89           4.3781349482         119.1351086514      A2        A2 (4)
   68    49           4.4061973473         119.8987253534      B1        B1 (2)
   69    73           4.5175126392         122.9277684407      B2        B2 (3)
   70    27           4.7260617855         128.6026792175      A1        A1 (1)
   71    74           4.8467960754         131.8880262682      B2        B2 (3)
   72    75           5.1493122111         140.1199088216      B2        B2 (3)
   73    90           5.1537463471         140.2405677970      A2        A2 (4)
   74    76           5.2555073406         143.0096252073      B2        B2 (3)
   75    28           5.3305761623         145.0523516954      A1        A1 (1)
   76    50           5.5259567461         150.3689276696      B1        B1 (2)
   77    29           5.6676950376         154.2258226614      A1        A1 (1)
   78    30           6.1782230669         168.1179966051      A1        A1 (1)
   79    77           6.5135947674         177.2439245266      B2        B2 (3)
   80    51           6.7095266521         182.5755021637      B1        B1 (2)
   81    31           6.8989290368         187.7294030709      A1        A1 (1)
   82    52           7.1335562016         194.1139328066      B1        B1 (2)
   83    53           7.2529450774         197.3626692796      B1        B1 (2)
   84    78           7.3075036611         198.8472838188      B2        B2 (3)
   85    91           7.3151576649         199.0555598501      A2        A2 (4)
   86    32           7.3267277916         199.3703990046      A1        A1 (1)
   87    92           7.3557078218         200.1589857170      A2        A2 (4)
   88    33           7.5373093892         205.1006155952      A1        A1 (1)
   89    34           7.9023262488         215.0332293066      A1        A1 (1)
   90    79           7.9267699477         215.6983761709      B2        B2 (3)
   91    80           8.8081111944         239.6808907395      B2        B2 (3)
   92    35          15.7739096927         429.2299043652      A1        A1 (1)


  VSCF finished.

 @CHECKOUT-I, Total execution time (CPU/WALL):        4.90/       0.75 seconds.
--executable xvscf finished with status     0 in        1.78 seconds (walltime).
 --invoking executable--
/home/CEISAM/blondel-a/soft/cfour2.1/cfour2.1-serial-mkl/bin/xvtran
 @GETMEM-I,  Allocated  238418 MB of main memory.
  Full RHF integral transformation
  The following   1 MOs will be dropped:
    1
  There are  91 active molecular orbitals.
  Transformation of IIII integrals :
  1 pass through the AO integral file was required.
      262933 AO integrals were read.
      266728 MO integrals were written to HF2.
  Transformation of IIJJ integrals :
  1 pass through the AO integral file was required.
      466389 AO integrals were read.
      480525 MO integrals were written to HF2.
  Transformation of IJIJ integrals :
  1 pass through the AO integral file was required.
      865293 AO integrals were read.
      887262 MO integrals were written to HF2.
  Transformation of IJKL integrals :
  1 pass through the AO integral file was required.
      575256 AO integrals were read.
      594864 MO integrals were written to HF2.
  Summary of active molecular orbitals: 
------------------------------------------------------------------------
 
  Index      Eigenvalue    Symmetry    Index      Eigenvalue    Symmetry
------------------------------------------------------------------------
     1        -1.3527400        1        47         4.0851537        2
     2        -0.5849370        1        48         4.2905683        2
     3        -0.5102575        2        49         4.4061973        2
     4        -0.7164335        3        50         5.5259567        2
     5         0.0294082        1        51         6.7095267        2
     6         0.1359281        1        52         7.1335562        2
     7         0.1751862        1        53         7.2529451        2
     8         0.2449924        1        54         0.0476882        3
     9         0.3103486        1        55         0.1830229        3
    10         0.4377884        1        56         0.2273956        3
    11         0.6584607        1        57         0.3658266        3
    12         0.7082091        1        58         0.4664504        3
    13         0.8310078        1        59         0.5994562        3
    14         0.8916943        1        60         0.9129302        3
    15         0.9620331        1        61         0.9308212        3
    16         1.0217718        1        62         1.0438971        3
    17         1.1822083        1        63         1.1090787        3
    18         1.5362444        1        64         1.2601741        3
    19         1.8038846        1        65         1.8202170        3
    20         2.1189048        1        66         1.9872777        3
    21         2.3260307        1        67         2.4427505        3
    22         2.4185798        1        68         2.6763117        3
    23         2.4790948        1        69         2.8178784        3
    24         2.7723484        1        70         3.6549167        3
    25         3.7453742        1        71         4.2489778        3
    26         4.1673579        1        72         4.5175126        3
    27         4.3755643        1        73         4.8467961        3
    28         4.7260618        1        74         5.1493122        3
    29         5.3305762        1        75         5.2555073        3
    30         5.6676950        1        76         6.5135948        3
    31         6.1782231        1        77         7.3075037        3
    32         6.8989290        1        78         7.9267699        3
    33         7.3267278        1        79         8.8081112        3
    34         7.5373094        1        80         0.2653260        4
    35         7.9023262        1        81         0.7224387        4
    36        15.7739097        1        82         0.9225173        4
    37         0.1586372        2        83         1.1764651        4
    38         0.3003416        2        84         1.5108806        4
    39         0.7315957        2        85         2.3162323        4
    40         0.8463601        2        86         2.8849385        4
    41         0.9183006        2        87         4.0183503        4
    42         1.0828861        2        88         4.3781349        4
    43         1.5844218        2        89         5.1537463        4
    44         2.2626989        2        90         7.3151577        4
    45         2.4206618        2        91         7.3557078        4
    46         2.6976846        2
------------------------------------------------------------------------
  -1.35273998542035      -0.584937011344914      -0.510257529269556     
 -0.716433454709381       2.940823696395435E-002  0.135928113447371     
  0.175186154003312       0.244992392367224       0.310348617709394     
  0.437788428633743       0.658460677066718       0.708209114958843     
  0.831007773605772       0.891694328727026       0.962033059922478     
   1.02177179094221        1.18220830126709        1.53624436632707     
   1.80388461343561        2.11890478792392        2.32603068966315     
   2.41857976952036        2.47909478053864        2.77234836541037     
   3.74537418490244        4.16735792002139        4.37556427048479     
   4.72606178550615        5.33057616230626        5.66769503756319     
   6.17822306693477        6.89892903684055        7.32672779159712     
   7.53730938924599        7.90232624875047        15.7739096927076     
  0.158637223916077       0.300341550438807       0.731595708094910     
  0.846360088345000       0.918300618605234        1.08288609630713     
   1.58442182146017        2.26269888302575        2.42066177439810     
   2.69768459944434        4.08515366693231        4.29056827191031     
   4.40619734729979        5.52595674608880        6.70952665213302     
   7.13355620157934        7.25294507737345       4.768820640063321E-002
  0.183022930484945       0.227395642628662       0.365826632655477     
  0.466450419566817       0.599456202614666       0.912930167807126     
  0.930821183876031        1.04389710962909        1.10907873349729     
   1.26017406921709        1.82021698222369        1.98727766472279     
   2.44275049111416        2.67631166472832        2.81787837497905     
   3.65491670862171        4.24897781943448        4.51751263923982     
   4.84679607535903        5.14931221106398        5.25550734062785     
   6.51359476735025        7.30750366108743        7.92676994771667     
   8.80811119435868       0.265326040014813       0.722438677999944     
  0.922517346262240        1.17646512810043        1.51088061239183     
   2.31623227437525        2.88493851657570        4.01835026785637     
   4.37813494816473        5.15374634708969        7.31515766486684     
   7.35570782178490     
 @CHECKOUT-I, Total execution time (CPU/WALL):       11.16/       0.75 seconds.
--executable xvtran finished with status     0 in        1.62 seconds (walltime).
 --invoking executable--
/home/CEISAM/blondel-a/soft/cfour2.1/cfour2.1-serial-mkl/bin/xintprc
 @GETMEM-I,  Allocated  238418 MB of main memory.
  @GMOIAA-I, Processing MO integrals for spin case AA.
  @GMOIAA-I, Generation of integral list completed.
                      TYPE                NUMBER
                      ----               --------
                      PPPP               1862118
                      PPPH                340336
                      PPHH                 15793
                      PHPH                 10160
                      PHHH                   950
                      HHHH                    22

                     TOTAL               2229379

  @FORMT2-I, Second-order MP correlation energies:
            ------------------------------------------------
            E(SCF)                  =    -76.060466332049 a.u.
            E2(AA)                  =     -0.032587552856 a.u.
            E2(AB)                  =     -0.203341492940 a.u.
            E2(TOT)                 =     -0.268516598652 a.u.
            Total MP2 energy        =    -76.328982930701 a.u.
            ------------------------------------------------
   Largest T2 amplitudes for spin case AB:
       _       _                 _       _                 _       _
   i   j   a   b             i   j   a   b             i   j   a   b
-----------------------------------------------------------------------------
[  4   4  58  58]-0.01957 [  2   2  14  14]-0.01876 [  3   3  42  42]-0.01508
[  4   4  62  58]-0.01385 [  4   4  58  62]-0.01385 [  2   4  14  58] 0.01346
[  4   2  58  14] 0.01346 [  4   4  59  59]-0.01310 [  3   3  41  41]-0.01301
[  2   2  59  59]-0.01260 [  4   4  62  62]-0.01218 [  3   3  42  41]-0.01189
[  3   3  41  42]-0.01189 [  2   3  14  41] 0.01185 [  3   2  41  14] 0.01185
-----------------------------------------------------------------------------
   Norm of T2AB vector (    31238 symmetry allowed elements):  0.2173862521.
-----------------------------------------------------------------------------
 @CHECKOUT-I, Total execution time (CPU/WALL):        5.71/       0.60 seconds.
--executable xintprc finished with status     0 in        1.81 seconds (walltime).
  calling xncc 
 --invoking executable--
/home/CEISAM/blondel-a/soft/cfour2.1/cfour2.1-serial-mkl/bin/xncc
 @GETMEM-I,  Allocated       7 MB of main memory.

Running with 20 threads/proc

Following the lowest-energy eigenvector.
Using a partitioned Davidson procedure.
Using discrete restarting.
Using an orthogonal subspace.
Orthogonalizing against previous roots.
Using Modified Gram-Schmidt orthogonalization.

Using DIIS to accelerate the convergence of T1 and T2
Using immediate high-order contributions
Performing 3 CCSD sub-iterations
Damping factor for T3: 0.000000
Damping factor for T4: 0.000000

Transposes are coarse-threaded

Memory limit:                232.831 GiB
Minimum memory requirement:  221.297 MiB
Compromise memory amount:     56.041 MiB
Optimal memory requirement:  297.826 MiB

List              Location   Size        Cached Hunks Est. Disk I/O
----------------- ---------- ----------- ------ ----- -------------

           HR_DAV      470:1    7.413 MiB    Yes     -    14.808 GiB
                R        471  948.844 KiB    Yes     -    83.394 MiB
            R_DAV      470:0    7.413 MiB    Yes     -    26.925 GiB
           T_DIIS       70:0    1.196 MiB    Yes     -    21.523 MiB
           Z_DIIS       70:1    1.196 MiB    Yes     -    35.872 MiB
          <AI|bj>         18  244.047 KiB    Yes     -    38.607 MiB
          <Ab|Cd>        233  110.649 MiB    Yes     -    15.452 GiB
          <Ab|Ci>         30    5.122 MiB    Yes     -     7.683 GiB
          <Ab|Ij>         16  244.047 KiB    Yes     -   379.417 MiB
          <Ai|Bj>         25  244.047 KiB    Yes     -    33.366 MiB
          <Aj|bI>         21  244.047 KiB     No     -         0   B
          <Ij|Ka>         10   11.500 KiB    Yes     -    19.339 MiB
          <Ij|Kl>         13      576   B    Yes     -    44.438 KiB
           DD(AI)      448:8      856   B    Yes     -    43.500 KiB
        DD(Ab,Ij)        450  244.047 KiB    Yes     -    14.783 MiB
            F(EA)       92:0   16.664 KiB    Yes     -    10.806 MiB
            F(EM)       93:0      856   B    Yes     -   455.586 KiB
            F(MI)       91:0       48   B    Yes     -    33.938 KiB
           HR(AI)      490:2      856   B    Yes     -     2.987 MiB
        HR(Ab,Ij)        463  244.047 KiB    Yes     -     1.556 GiB
            Q(AI)      190:2      856   B    Yes     -   137.930 KiB
         Q(Ab,Ij)         50  244.047 KiB    Yes     -   132.271 MiB
            R(AI)      490:0      856   B    Yes     -     6.544 MiB
         R(Ab,Ij)        446  244.047 KiB    Yes     -     2.426 GiB
            T(AI)       90:0      856   B    Yes     -     1.400 MiB
         T(Ab,Ij)         46  244.047 KiB    Yes     -   602.729 MiB
         W(Mn,Ij)         53      576   B    Yes     -   102.375 KiB
        W~(Ab,Ej)        130    5.122 MiB    Yes     -     2.015 GiB
        W~(EM,bj)         56  244.047 KiB    Yes     -    91.518 MiB
        W~(Em,Bj)         58  244.047 KiB    Yes     -    87.943 MiB
        W~(Ij,Mb)        110   11.500 KiB    Yes     -     4.537 MiB
       W~~(Ab,Ef)         33  110.649 MiB    Yes     -     6.699 GiB
       W~~(Ab,Ej)        169    5.122 MiB    Yes     -    10.339 GiB
       W~~(EM,bj)         76  244.047 KiB    Yes     -    46.712 MiB
       W~~(Em,Bj)         78  244.047 KiB    Yes     -    46.712 MiB
       W~~(Ij,Mb)        165   11.500 KiB    Yes     -     8.311 MiB
       W~~(Mn,Ij)        153      576   B    Yes     -    34.312 KiB
         X(Ab,Ej)        430    5.122 MiB    Yes     -     5.593 GiB
         X(Ab,Ij)        416  244.047 KiB     No     -         0   B
            X(EA)      492:0   16.664 KiB    Yes     -     5.197 MiB
            X(EM)      493:0      856   B    Yes     -   203.906 KiB
         X(EM,bj)        418  244.047 KiB     No     -         0   B
         X(Ef,Am)        469    5.122 MiB     No     -         0   B
         X(Em,Bj)        425  244.047 KiB     No     -         0   B
         X(Ij,Mb)        410   11.500 KiB    Yes     -     7.009 MiB
            X(MI)      491:0       48   B    Yes     -    11.250 KiB
         X(Mn,Ie)        465   11.500 KiB     No     -         0   B
         X(Mn,Ij)        413      576   B    Yes     -    60.000 KiB
            Z(AI)       90:2      856   B    Yes     -   388.711 KiB
         Z(Ab,Ij)         63  244.047 KiB    Yes     -   110.822 MiB
      HR(abc,ijk)          -   20.292 MiB     No     1         0   B
       T(abc,ijk)          -   20.292 MiB     No     1         0   B
       Z(abc,ijk)          -   20.292 MiB     No     1         0   B

Simulation and memory analysis took 0.396 seconds

MP2 correlation energy:  -0.268516598651546

Non-iterative calculation of MP2 took 0.198 cpu seconds and 0.010 walltime seconds at 0.136 Gflops/sec

Total MP2 energy: -76.328982930700846

Beginning iterative solution of CC3 equations:

It.  Correlation Energy T1 Residual T2 Residual CPU Time (s) Walltime (s)
-------------------------------------------------------------------------
  1  -0.282251613552386 2.29713e-03 2.56840e-03        9.616        0.488
  2  -0.282320781495352 4.89801e-04 5.21433e-04        7.274        0.365
  3  -0.282322787188454 9.19848e-05 9.80112e-05        8.050        0.405
  4  -0.282320947674259 1.60573e-05 1.75162e-05        7.718        0.387
  5  -0.282320544766677 2.46495e-06 3.10871e-06        8.170        0.410

   A    I                     A    I                     A    I                  
-------------------------- -------------------------- -------------------------- 
   9    5 -0.0139402155299   62    5  0.0038511675653   34    3  0.0030734000718 
  15    5 -0.0121432518391   26    5 -0.0036207670719   46    4 -0.0029025672825 
   8    4  0.0081535161067   71    3  0.0033725765013   24    5  0.0028767407553 
  16    4 -0.0072773537281    6    4 -0.0031923964543   29    5 -0.0025945535202 
  45    3  0.0048994931507   70    4  0.0031094421741   13    4  0.0025880622274 

   A    B    I    J                     A    B    I    J                  
------------------------------------ ------------------------------------ 
  19   19    3    3 -0.0223751495352   29   29    5    5 -0.0139179844921 
  27   27    4    4 -0.0206129984738   34   34    3    3 -0.0136250464360 
  34   19    3    3 -0.0159628574456   27   19    4    3  0.0135362490440 
  19   34    3    3 -0.0159628574456   19   27    3    4  0.0135362490440 
  35   35    5    5 -0.0159586380997   35   29    5    5 -0.0130260967856 
  20   20    3    3 -0.0155580915372   29   35    5    5 -0.0130260967856 
  20   20    4    4 -0.0148028100057   27   16    4    4  0.0130135746592 
   9    9    5    5 -0.0139598683757 

It.  Correlation Energy T1 Residual T2 Residual CPU Time (s) Walltime (s)
-------------------------------------------------------------------------
  6  -0.282320499984120 4.08501e-07 5.61388e-07        7.679        0.385
  7  -0.282320493830691 8.14853e-08 1.01869e-07        7.082        0.355
  8  -0.282320492211165 1.43982e-08 1.82858e-08        7.534        0.378

CC3 iterations converged in 8 cycles and 3.172 seconds (0.396 s/it.) at 5.070 Gflops/sec

Total CC3 energy: -76.342786824260472

             _
Formation of H took 0.395 seconds at 5.797 Gflops/sec

Searching for 1 roots in irrep 1

EOMEE-CCSD guess vector:

   A    I                  
-------------------------- 
   6    4  1.0000000000000 

Beginning iterative solution of EOMEE-CC3 equations:

It.  Correlation Energy R1 Residual R2 Residual CPU Time (s) Walltime (s)
-------------------------------------------------------------------------
  1   0.528370546694910 3.27350e-02 7.27717e-02       11.048        0.561
  2   0.447517640510718 8.46692e-02 3.24711e-02        8.992        0.453
  3   0.390822619724294 2.09930e-02 1.01989e-02        7.926        0.397
  4   0.376441810568438 3.36568e-02 7.24931e-03        8.172        0.410
  5   0.367998389928519 6.26843e-03 1.25945e-03        9.095        0.456
  6   0.366662735589236 3.74733e-03 9.47581e-04        8.603        0.432
  7   0.366434446441835 4.01504e-03 6.26760e-04        8.917        0.447
Locking on root: 0.366402041195812
  8   0.366402041195812 1.54681e-03 6.71307e-04        8.983        0.450
  9   0.366290893570620 1.40869e-03 1.70072e-04        9.168        0.460
 10   0.366262410215873 5.20385e-04 1.89383e-04       10.013        0.502
 11   0.366256263477104 1.93913e-04 6.67501e-05        9.919        0.497
 12   0.366255718981211 9.53270e-05 2.37500e-05       10.457        0.524
 13   0.366254979776534 2.88040e-05 1.25618e-05       10.817        0.542
 14   0.366254970813475 1.94445e-05 3.95602e-06       10.947        0.549
 15   0.366255141422105 5.38309e-06 1.58867e-06       11.507        0.577

EOMEE-CC3 iterations converged in 15 cycles and 7.257 seconds (0.484 s/it.) at 6.326 Gflops/sec

EOMEE-CC3 excitation energy:   0.366255141422101 (  9.966309075458021 eV)
Total EOMEE-CC3 energy:      -75.976531682838370

Converged root:

   A    I                     A    I                     A    I                  
-------------------------- -------------------------- -------------------------- 
   6    4 -0.5523496989390   15    5  0.0460269818722   25    4  0.0119112515636 
  10    4  0.2609735895162   33    4 -0.0248797468869   29    5  0.0119074256192 
   8    4  0.2341202260720    6    2  0.0201742186997   26    5  0.0118226038323 
  18    4  0.1149342258296   10    2 -0.0148589489088   35    5  0.0113628706259 
   9    5  0.1136487801422   19    3  0.0119876388515   32    4 -0.0108598905699 

   A    B    I    J                     A    B    I    J                  
------------------------------------ ------------------------------------ 
   8    6    4    4  0.0520391513814   19    6    3    4 -0.0388971508864 
   6    8    4    4  0.0520391513814    6   19    4    3 -0.0388971508864 
  16    6    4    4 -0.0441141055454    8    8    4    4 -0.0364826461643 
   6   16    4    4 -0.0441141055454   15    6    5    4 -0.0342329332223 
   9    6    5    4 -0.0415240791916    6   15    4    5 -0.0342329332223 
   6    9    4    5 -0.0415240791916    6    6    4    4 -0.0303418328476 
  27    6    4    4  0.0411209385293   11    6    3    4 -0.0299966597135 
   6   27    4    4  0.0411209385293 

Searching for 1 roots in irrep 2

EOMEE-CCSD guess vector:

   A    I                  
-------------------------- 
   6    5  1.0000000000000 

Beginning iterative solution of EOMEE-CC3 equations:

It.  Correlation Energy R1 Residual R2 Residual CPU Time (s) Walltime (s)
-------------------------------------------------------------------------
  1   0.452448506972138 3.17469e-02 6.02378e-02        7.751        0.389
  2   0.369912780109370 8.16510e-02 4.04242e-02        7.824        0.392
  3   0.303441038907844 2.04167e-02 7.63373e-03        7.847        0.393
  4   0.291147434102459 3.82684e-02 7.21657e-03        8.104        0.406
  5   0.281237039075637 7.71131e-03 1.54928e-03        8.125        0.407
  6   0.279421682443840 2.90261e-03 7.02711e-04        8.330        0.418
  7   0.279539487653236 1.24793e-03 2.84408e-04        8.571        0.430
  8   0.279476166925300 6.17307e-04 1.20262e-04        8.731        0.438
Locking on root: 0.279452552334492
  9   0.279452552334492 2.12300e-04 5.75420e-05        8.916        0.447
 10   0.279471746193319 1.54382e-04 2.16677e-05        9.764        0.489
 11   0.279461539743922 4.05291e-05 1.09209e-05        9.979        0.500
 12   0.279463827749276 2.18330e-05 3.59210e-06       10.202        0.511
 13   0.279463987421462 9.74854e-06 1.47467e-06       10.567        0.530

EOMEE-CC3 iterations converged in 13 cycles and 5.750 seconds (0.442 s/it.) at 6.350 Gflops/sec

EOMEE-CC3 excitation energy:   0.279463987421465 (  7.604601708218269 eV)
Total EOMEE-CC3 energy:      -76.063322836839006

Converged root:

   A    I                     A    I                     A    I                  
-------------------------- -------------------------- -------------------------- 
   6    5  0.5509311051046   16    5  0.0253117431280   22    5 -0.0075913367499 
   8    5 -0.2725713956671   25    5 -0.0143540570419    9    4 -0.0065621976955 
  10    5 -0.2494430164003   32    5  0.0137956498401   46    5 -0.0046768772930 
  18    5 -0.1297700765327   27    5 -0.0137089491159    9    2  0.0046304717212 
  33    5  0.0284969597723   50    5 -0.0076506476481   15    2  0.0040329331183 

   A    B    I    J                     A    B    I    J                  
------------------------------------ ------------------------------------ 
   9    6    5    5  0.0550699814650   29    6    5    5  0.0339156596215 
   6    9    5    5  0.0550699814650    6   29    5    5  0.0339156596215 
  15    6    5    5  0.0430900252302    6   16    5    4  0.0329743600129 
   6   15    5    5  0.0430900252302   16    6    4    5  0.0329743600129 
  19    6    3    5  0.0404566160842   11    6    3    5  0.0312936144478 
   6   19    5    3  0.0404566160842    6   11    5    3  0.0312936144478 
   6    8    5    4 -0.0383364811262    6   27    5    4 -0.0305381762874 
   8    6    4    5 -0.0383364811262 

Searching for 1 roots in irrep 3

EOMEE-CCSD guess vector:

   A    I                  
-------------------------- 
   7    4  1.0000000000000 

Beginning iterative solution of EOMEE-CC3 equations:

It.  Correlation Energy R1 Residual R2 Residual CPU Time (s) Walltime (s)
-------------------------------------------------------------------------
  1   0.579943373907682 2.90221e-02 7.35994e-02        8.061        0.404
  2   0.502251242640547 8.39115e-02 3.17568e-02        7.949        0.399
  3   0.448039485760359 2.14519e-02 6.63610e-03        7.835        0.393
  4   0.442831959471980 4.61967e-02 8.43212e-03        8.508        0.427
  5   0.433301716668247 9.08002e-03 1.63721e-03        8.278        0.415
  6   0.430873487044248 4.08868e-03 1.01786e-03        8.589        0.430
  7   0.431050691971163 2.12088e-03 4.32332e-04        8.613        0.432
  8   0.430809161976717 1.42334e-03 2.33065e-04        8.769        0.440
  9   0.430760009496554 7.78946e-04 1.37326e-04        9.119        0.457
 10   0.430811548573871 3.46207e-04 6.94185e-05        9.407        0.471
Locking on root: 0.430776807280574
 11   0.430776807280574 2.75552e-04 3.77580e-05        9.939        0.498
 12   0.430779760597305 1.29946e-04 2.51028e-05       10.407        0.522
 13   0.430786388293385 6.56656e-05 1.81769e-05       10.847        0.544
 14   0.430781045605767 1.51402e-05 8.76020e-06       10.971        0.550
 15   0.430782309544654 1.25688e-05 3.91506e-06       12.505        0.627
 16   0.430782213387174 8.82650e-06 1.45109e-06       12.199        0.611

EOMEE-CC3 iterations converged in 16 cycles and 7.620 seconds (0.476 s/it.) at 6.602 Gflops/sec

EOMEE-CC3 excitation energy:   0.430782213387175 ( 11.722179970379038 eV)
Total EOMEE-CC3 energy:      -75.912004610873296

Converged root:

   A    I                     A    I                     A    I                  
-------------------------- -------------------------- -------------------------- 
   7    4  0.5653442997167   34    4  0.0254803592730   17    4  0.0131874260139 
  11    4  0.3204378402996    7    2 -0.0172260228240   39    4  0.0113044560502 
  12    4  0.1365184682761   31    4  0.0155779136374   28    4  0.0101604500781 
  19    4  0.1166277786726   23    5 -0.0149588898572   21    3  0.0094214728800 
  14    5 -0.0393087675926   20    4  0.0148530529271   11    2 -0.0078025841103 

   A    B    I    J                     A    B    I    J                  
------------------------------------ ------------------------------------ 
   9    7    5    4  0.0479031317937   19    7    3    4  0.0406410024741 
   7    9    4    5  0.0479031317937    7   19    4    3  0.0406410024741 
   7    8    4    4 -0.0472529731702   15    7    5    4  0.0370076595776 
   8    7    4    4 -0.0472529731702    7   15    4    5  0.0370076595776 
   7   16    4    4  0.0443048346144   11    7    3    4  0.0333455919670 
  16    7    4    4  0.0443048346144    7   11    4    3  0.0333455919670 
   7   27    4    4 -0.0424951395210    7   18    4    4 -0.0282428787865 
  27    7    4    4 -0.0424951395210 

Searching for 1 roots in irrep 4

EOMEE-CCSD guess vector:

   A    I                  
-------------------------- 
   7    5  1.0000000000000 

Beginning iterative solution of EOMEE-CC3 equations:

It.  Correlation Energy R1 Residual R2 Residual CPU Time (s) Walltime (s)
-------------------------------------------------------------------------
  1   0.503109777844367 2.93695e-02 6.05410e-02        7.785        0.390
  2   0.421557469996807 8.33357e-02 4.07465e-02        7.851        0.394
  3   0.364937940451122 2.19705e-02 8.12185e-03        7.998        0.401
  4   0.358832272515174 4.91799e-02 6.80298e-03        7.881        0.395
  5   0.347929711919314 1.15481e-02 2.36095e-03        8.246        0.413
  6   0.345073291626399 5.36205e-03 1.37999e-03        8.647        0.433
  7   0.345187275078503 3.37363e-03 6.62215e-04        8.650        0.434
  8   0.344789944448562 1.78708e-03 3.26729e-04        8.810        0.442
Locking on root: 0.344777386208410
  9   0.344777386208410 6.91013e-04 1.12397e-04        9.254        0.464
 10   0.344808106228428 2.01666e-04 4.99538e-05        9.381        0.470
 11   0.344784147408398 5.97656e-05 2.31175e-05        9.999        0.501
 12   0.344789505699465 9.04517e-06 4.42083e-06       10.331        0.518

EOMEE-CC3 iterations converged in 12 cycles and 5.255 seconds (0.438 s/it.) at 6.243 Gflops/sec

EOMEE-CC3 excitation energy:   0.344789505699467 (  9.382199431884676 eV)
Total EOMEE-CC3 energy:      -75.997997318561005

Converged root:

   A    I                     A    I                     A    I                  
-------------------------- -------------------------- -------------------------- 
   7    5  0.5480831036780   34    5  0.0327920411934   39    5  0.0081276036016 
  11    5  0.3256936996171   31    5  0.0166847831253   14    2  0.0061262190692 
  12    5  0.1755234802617   17    5  0.0089025981874   36    5  0.0059427153571 
  19    5  0.1362081579193   45    5  0.0083220499161   52    5  0.0036102716077 
  20    5  0.0364834467864   28    5  0.0082199676090   54    5  0.0034170507779 

   A    B    I    J                     A    B    I    J                  
------------------------------------ ------------------------------------ 
   7    9    5    5  0.0553281896389    7   29    5    5  0.0345018042679 
   9    7    5    5  0.0553281896389   29    7    5    5  0.0345018042679 
   7   15    5    5  0.0416131961227   11    7    3    5  0.0337166906477 
  15    7    5    5  0.0416131961227    7   11    5    3  0.0337166906477 
  19    7    3    5  0.0408856050528    7   16    5    4  0.0334190900126 
   7   19    5    3  0.0408856050528   16    7    4    5  0.0334190900126 
   7    8    5    4 -0.0392055279907    7   27    5    4 -0.0314015933472 
   8    7    4    5 -0.0392055279907 

 @CHECKOUT-I, Total execution time (CPU/WALL):      594.38/      30.43 seconds.
--executable xncc finished with status     0 in       33.03 seconds (walltime).
  The final electronic energy is       -75.997997318561005 a.u. 
  This computation required                           44.31 seconds (walltime).
