 --invoking executable--
/home/CEISAM/blondel-a/soft/cfour2.1/cfour2.1-serial-mkl/bin/xjoda


   *************************************************************************
         <<<     CCCCCC     CCCCCC   |||     CCCCCC     CCCCCC   >>>
       <<<      CCC        CCC       |||    CCC        CCC         >>>
      <<<      CCC        CCC        |||   CCC        CCC            >>>
    <<<        CCC        CCC        |||   CCC        CCC              >>>
      <<<      CCC        CCC        |||   CCC        CCC            >>>
       <<<      CCC        CCC       |||    CCC        CCC         >>>
         <<<     CCCCCC     CCCCCC   |||     CCCCCC     CCCCCC   >>>
   *************************************************************************

     ****************************************************************
     * CFOUR Coupled-Cluster techniques for Computational Chemistry *
     ****************************************************************
 

   Department of Chemistry                Institut fuer Physikalische Chemie
   University of Florida                  Universitaet Mainz
   Gainesville, FL 32611, USA             D-55099 Mainz, Germany

   Department of Chemistry                Fakultaet fuer Chemie und Biowiss.
   Johns Hopkins University               Karlsruher Institut fuer Technologie
   Baltimore, MD 21218, USA               D-76131 Karlsruhe, Germany

   Department of Chemistry                Department of Physical Chemistry
   Southern Methodist University          Eotvos Lorand University
   Dallas, TX 75275, USA                  H-1053 Budapest, Hungary

 
                       Version 2.1
 
                     cribbar053                                        
                     Tue Mar 16 17:26:51 CET 2021                      
                     integer*8 version is running
 
********************************************************************************
*                          Input from ZMAT file                                *
********************************************************************************
Ketene -GS                                                                      
C     0.0000000000            0.0000000000           -1.2494205467              
O     0.0000000000            0.0000000000            0.8926669184              
                                                                                
*CFOUR(COORD=CARTESIAN,UNITS=BOHR                                               
       MEMORY=250,MEM_UNIT=GB,CC_PROG=NCC                                       
       FROZEN_CORE=1                                                            
       CALC=CC4,BASIS=AUG-PVDZ                                                  
       SCF_CONV=8,CC_CONV=7,ESTATE_CONV=5,ESTATE_MAXCYC=120                     
       EXCITE=EOMEE,ESTATE_SYM=3/2/0/2)                                         
                                                                                
********************************************************************************
    -------------------------------------------------------------------
                    CFOUR Control Parameters 
    -------------------------------------------------------------------
        External           Internal           Value            Units
          Name               Name
    -------------------------------------------------------------------
       ABCDTYPE             IABCDT         STANDARD    [  0]    ***   
       ANHARMONIC           IANHAR         OFF         [  0]    ***   
       ANH_ALGORIT          IANALG         STANDARD    [  0]    ***   
       ANH_DERIVAT          IANDER         SECOND      [  1]    ***   
       ANH_MODE             ANHMOD         VIBRATION   [  0]    ***   
       ANH_STEPSIZ          ICUBST             50000          x 10-6  
       ANH_SYMMETR          IANHSM         ABELIAN     [  0]    ***   
       AO_LADDERS           IAOLAD         SINGLEPASS  [  1]    ***   
       AV_SCF               IAVSCF         OFF         [  0]    ***   
       BASIS                IBASIS         AUG-PVDZ    [ 33]    ***   
       BOTHVECTORS          BOTHVC         OFF         [  0]    ***   
       BOX_POTENT           IPIAB          OFF         [  0]    ***   
       BREIT                IBREIT         OFF         [  0]    ***   
       BRUCK_CONV           IBRTOL          10D-  4             ***   
       BRUECKNER            IBRKNR         OFF         [  0]    ***   
       BUFFERSIZE           IBUFFS              4096            ***   
       CACHE_RECS           ICHREC             10               ***   
       CALCLEVEL            ICLLVL         CC4         [ 52]    ***   
       CCORBOPT             ICCORB         OFF         [  0]  x 0.01  
       CC_CONV              ICCCNV          10D-  7             ***   
       CC_EXPORDER          ICCEOR              5               ***   
       CC_EXTRAPOL          ICCEXT         DIIS        [  1]    ***   
       CC_GUESS             ICCGES         MP2         [  0]    ***   
       CC_MAXCYC            ICCCYC            100              cycles 
       CC_PROGRAM           ICCPRO         NCC         [  5]    ***   
       CHARGE               ICHRGE              0               ***   
       CHOLESKY             ICHOLE         OFF         [  0]    ***   
       CIS_CONV             ICISTL              5               ***   
       COMM_SIZE            IPSIZE            ***               ***   
       CONSTANT             ICONST         OLD         [  1]    ***   
       CONTINUUM            ICONTU         NONE        [  0]    ***   
       CONTRACTION          ICNTYP         GENERAL     [  1]    ***   
       COORDINATES          ICOORD         CARTESIAN   [  1]    ***   
       CPHF_CONVER          ICPHFT          10D- 16             ***   
       CPHF_MAXCYC          ICPHFC             64              cycles 
       CUBIC                ICUBIC         OFF         [  0]    ***   
       CURVILINEAR          ICURVY         OFF         [  0]    ***   
       DBOC                 IDBOC          OFF         [  0]    ***   
       DCT                  IDCT           OFF         [  0]    ***   
       DERIV_LEV            IDRLVL         ZERO        [  0]    ***   
       DEVMEM_SIZE          IDVMEM         *********           MByte  
       DIAG_MRCC            IEOMST          10D-  0             ***   
       DIFF_TYPE            IDIFTY         RELAXED     [  0]    ***   
       DIRECT               IDIRCT         OFF         [  0]    ***   
       DROPMO               IDRPMO      NONE         
       ECP                  IECP           OFF         [  0]    ***   
       EIGENVECTOR          IVEC                1               ***   
       EL_ANHARM            IELANH         OFF         [  0]    ***   
       EOMFOLLOW            IEOMSR         ENERGY      [  0]    ***   
       EOMIP                IEOMIP         OFF         [  0]    ***   
       EOMLEVEL             HBARFM         SAME        [  0]    ***   
       EOM_MRCC             IMRCCE         NEW         [  1]    ***   
       EOM_NONIT            EOMNON         OFF         [  0]    ***   
       EOM_NSING            IEOMSI          10D-  0             ***   
       EOM_NSTATES          IMRCCD         DAVIDSON    [  0]    ***   
       EOM_NTRIP            IEOMTR          10D-  0             ***   
       EOM_ORDER            IEXORD         ENERGY      [  0]    ***   
       EOM_PROPSTA          IEOMST              0               ***   
       ESTATE_CONV          IEXTOL          10D-  5             ***   
       ESTATE_DIAG          IEXDIG         ITERATIVE   [  0]    ***   
       ESTATE_LOCK          IESLOC         ON          [  1]    ***   
       ESTATE_MAXC          IEXMXC            120               ***   
       ESTATE_PROP          IEXPRP         OFF         [  0]    ***   
       ESTATE_SYM           IEXSYM   3,  2,  0,  2,
       EVAL_HESS            IRECAL              0            # of cyc.
       EXCITATION           IEXCIT              0               ***   
       EXCITE               IEXCIT         EOMEE       [  3]    ***   
       EXTERN_POT           IEXPOT         OFF         [  0]    ***   
       FCGRADNEW            IFCGNW         OFF         [  0]    ***   
       FC_FIELD             IFINFC              0             x 10-6  
       FD_CALTYPE           IFDCAL         GRADONLY    [  0]    ***   
       FD_PROJECT           IFDPRJ         OFF         [  1]    ***   
       FD_STEPSIZE          IDISFD              0            10-4 bohr
       FD_USEGROUP          IFDGRP         FULL        [  0]    ***   
       FILE_RECSIZ          IFLREC              4096           words  
       FINITE_PERT          IFIPER              0             x 10-6  
       FIXGEOM              IFIXGM         OFF         [  0]    ***   
       FOCK                 IFOCK          AO          [  1]    ***   
       FREQ_ALGORI          IVIALG         STANDARD    [  0]    ***   
       FROZEN_CORE          IFROCO         ON          [  1]    ***   
       GAMMA_ABCD           IGABCD         STORE       [  0]    ***   
       GAMMA_ABCI           IGABCI         STORE       [  0]    ***   
       GENBAS_1             IGNBS1              0               ***   
       GENBAS_2             IGNBS2              0               ***   
       GENBAS_3             IGNBS3              0               ***   
       GENBAS_4             IGNBS4              0               ***   
       GEO_CONV             ICONTL              5              H/bohr 
       GEO_MAXCYC           IOPTCY             50               ***   
       GEO_MAXSTEP          IMXSTP            300            millibohr
       GEO_METHOD           INR            SINGLE_POINT[  5]    ***   
       GIAO                 IGIAO          OFF         [  1]    ***   
       GIMIC                IGIMIC         OFF         [  0]    ***   
       GRID                 IGRID          OFF         [  0]    ***   
       GRID_ALGO            IGALGO         SERIAL      [  0]    ***   
       GUESS                IGUESS         MOREAD      [  0]    ***   
       HBAR                 IHBAR          ON          [  1]    ***   
       HESS_TYPE            IHESTP         SCF         [  0]    ***   
       HF2_FILE             IHF2Fl         USE         [  1]    ***   
       HFSTABILITY          ISTABL         OFF         [  0]    ***   
       INCORE               INCORE         OFF         [  0]    ***   
       INPUT_MRCC           IMRCC          ON          [  1]    ***   
       INTEGRALS            INTTYP         VMOL        [  1]    ***   
       JODA_PRINT           IJPRNT              0               ***   
       KEYWORD_OUT          IDMPKW         NO          [  0]    ***   
       LINDEP_TOL           ILINDP              8               ***   
       LINEQ_CONV           IZTACN          10D-  7           cycles  
       LINEQ_EXPOR          ILMAXD              5               ***   
       LINEQ_MAXCY          ILMAXC            100               ***   
       LINEQ_TYPE           ILTYPE         DIIS        [  1]    ***   
       LOCK_ORBOCC          ILOCOC         OFF         [  0]    ***   
       MEMORY_SIZE          IMEMSZ         *********           words  
       MEM_UNIT             IMEMU          GB          [  3]    ***   
       MRCC                 IMRCCC         OFF         [  0]    ***   
       MULTIPLICTY          IMULTP              1               ***   
       NACOUPLING           IVCOUP         OFF         [  0]    ***   
       NEGEVAL              IDIE           ABORT       [  0]    ***   
       NEWNORM              INEWNO         OFF         [  0]    ***   
       NON-HF               INONHF         OFF         [  0]    ***   
       NTOP_TAMP            ITOPT2             15               ***   
       NUC_MODEL            INUCMO         POINT       [  0]    ***   
       OCCUPATION           IOCCU   ESTIMATED BY SCF 
       OPEN-SHELL           IOPEN          SPIN-ORBITAL[  0]    ***   
       OPTVIB               IOPTVB         OFF         [  0]    ***   
       ORBITALS             IORBTP         STANDARD    [  0]    ***   
       PARALLEL             IPARAL         ON          [  1]    ***   
       PARA_INT             IPINTS         ON          [  1]    ***   
       PARA_PRINT           IPPRIN              0               ***   
       PERT_ORB             IPTORB         STANDARD    [  0]    ***   
       POINTS               IGRDFD              0               ***   
       PRINT                IPRNT               0               ***   
       PROPS                IPROPS         OFF         [  0]    ***   
       PROP_INTEGR          IINTYP         INTERNAL    [  0]    ***   
       PSI                  IPSI           OFF         [  0]    ***   
       QC_ALG               IQCALG         FLM         [  0]    ***   
       QC_LINALG            IQCLIN         TRIDIAG     [  2]    ***   
       QC_MAXCYC            IQCMAX          10D-100           cycles  
       QC_MAXSCFCY          IQCMSC          10D- 15           cycles  
       QC_RTRUST            IQCRTR          10D-  0           x 10-3  
       QC_SKIPSCF           IQCSKI         OFF         [  0]    ***   
       QC_START             IQCSTA          10D-  1             ***   
       QRHFGUESS            IQGUES         OFF         [  0]    ***   
       QUARTIC              IQUART         OFF         [  0]    ***   
       RAMAN_INT            IRAMIN         OFF         [  0]    ***   
       RAMAN_ORB            IRAMRE         UNRELAXED   [  0]    ***   
       RDO                  IRDOFM         OFF         [  0]    ***   
       REDUCE_REPR          REDREP         Ir          [  0]    ***   
       REFERENCE            IREFNC         RHF         [  0]    ***   
       RELATIVIST           IRELAT         OFF         [  0]    ***   
       RELAX_DENS           IRDENS         OFF         [  0]    ***   
       RESET_FLAGS          IRESET         OFF         [  0]    ***   
       RESTART_CC           ICCRES         OFF         [  0]    ***   
       ROT_EVEC             ROTVEC              0               ***   
       SAVE_INTS            ISVINT         OFF         [  0]    ***   
       SCALE_ON             ISTCRT              0               ***   
       SCF_CONV             ISCFCV          10D-  8             ***   
       SCF_DAMPING          IDAMP               0             x 10-3  
       SCF_EXPORDE          IRPPOR              6               ***   
       SCF_EXPSTAR          IRPPLS              8               ***   
       SCF_EXTRAPO          IRPP           ON          [  1]    ***   
       SCF_MAXCYC           ISCFCY            150              cycles 
       SCF_NOSTOP           ISCFST         OFF         [  0]    ***   
       SCF_PRINT            ISCFPR              0               ***   
       SCF_PROG             ISCFPR         SCF         [  0]    ***   
       SD_FIELD             IFINSD              0             x 10-6  
       SOPERT               IPERSO         OFF         [  0]    ***   
       SPHERICAL            IDFGHI         ON          [  1]    ***   
       SPINORBIT            ISOCAL         OFF         [  0]    ***   
       SPINROTATIO          ISRCON         OFF         [  0]    ***   
       SPIN_FLIP            ISPFLP         OFF         [  0]    ***   
       SPIN_ORBIT           ISPORB         OFF         [  0]    ***   
       SPIN_SCAL            ISCSMP         OFF         [  0]    ***   
       STEEPSCALE           ISTPSC              1000          x 10-3  
       SUBGROUP             ISUBGP         DEFAULT     [  0]    ***   
       SUBGRPAXIS           ISBXYZ         X           [  0]    ***   
       SYMMETRY             ISYM           ON          [  0]    ***   
       SYM_CHECK            ISYMCK         OVERRIDE    [  1]    ***   
       T3_EXTRAPOL          IT3EXT         ON          [  1]    ***   
       T4_EXTRAPOL          IT4EXP         OFF         [  0]    ***   
       TAMP_SUM             IEVERY              5               ***   
       TESTSUITE            ITESTS         OFF         [  0]    ***   
       THERMOCH             ITHERM         OFF         [  0]    ***   
       TOL_CHOLESK          ITOLCH          10D-  4             ***   
       TRANGRAD             IRESRM         OFF         [  0]    ***   
       TRANS_INV            ITRAIN         USE         [  0]    ***   
       TREAT_PERT           ITREAT         SIMULTANEOUS[  0]    ***   
       TRIP_ALGORI          ITRALG         NORMAL      [  0]    ***   
       UIJ_THRESHO          IUIJTH              1               ***   
       UNITS                IUNITS         BOHR        [  1]    ***   
       UNOS                 IUNOS          OFF         [  0]    ***   
       UPDATE_HESS          IHUPDT         ON          [  1]    ***   
       VIBPHASE             ISETPH         STANDARD    [  0]    ***   
       VIBRATION            IVIB           NO          [  0]    ***   
       VIB_ALGORIT          IGEALG         STANDARD    [  0]    ***   
       VNATORB              IVNORB         OFF         [  0]    ***   
       VTRAN                IVTRAN         FULL/PARTIAL[  0]    ***   
       XFIELD               IXEFLD              0             x 10-6  
       XFORM_TOL            IXFTOL          10D- 11             ***   
       YFIELD               IYEFLD              0             x 10-6  
       ZFIELD               IZEFLD              0             x 10-6  
       ZSCALE_EXP           IZEXPS         OFF         [  0]    ***   
    -------------------------------------------------------------------
  @GETXYZ-I,     2 atoms read from ZMAT.
   Rotational constants (in cm-1): 
          1.9135333977             1.9135333977
   Rotational constants (in MHz): 
      57366.2961120363         57366.2961120363
********************************************************************************
   The full molecular point group is CXv .
   The largest Abelian subgroup of the full molecular point group is C2v .
   The computational point group is C2v .
********************************************************************************


 ----------------------------------------------------------------
         Coordinates used in calculation (QCOMP) 
 ----------------------------------------------------------------
 Z-matrix   Atomic            Coordinates (in bohr)
  Symbol    Number           X              Y              Z
 ----------------------------------------------------------------
     C         6        -0.00000000     0.00000000     1.22388322
     O         8         0.00000000     0.00000000    -0.91820425
 ----------------------------------------------------------------
 
   Interatomic distance matrix (Angstroms) 
 
                 C             O    
                [ 1]        [ 2]
  C    [ 1]     0.00000
  O    [ 2]     1.13354     0.00000
 rotcon2
   Rotational constants (in cm-1): 
          1.9135333977             0.0000000000
   Rotational constants (in MHz): 
      57366.2961120363             0.0000000000
  There are   2 frozen-core orbitals.
  There are   46 basis functions.
 @GEOPT-W, Archive file not created for single-point calculation.
 @CHECKOUT-I, Total execution time (CPU/WALL):        0.17/       1.54 seconds.
--executable xjoda finished with status     0 in        2.17 seconds (walltime).
 --invoking executable--
/home/CEISAM/blondel-a/soft/cfour2.1/cfour2.1-serial-mkl/bin/xvmol
 SERIAL VERSION OF MOLECULE STARTED
********************************************************************************
                    INPUT FROM MOL FILE
********************************************************************************
INTGRL        1    0    1    0    0    0    0    0    0                         
         *** CFOUR Program System (Release V0.1) ***                            
Ketene -GS                                                                      
    2    2 X  Y       0.10E-08              0    0                              
   9999.00      3.00                                                            
          6.00000000    1    3    1    1    1                                   
C #1  -0.000000000000000   0.000000000000000   1.223883215473396                
   10    4                                                                      
   6665.00000000000       6.920000000000000E-004 -1.460000000000000E-004        
  0.000000000000000E+000  0.000000000000000E+000                                
   1000.00000000000       5.329000000000000E-003 -1.154000000000000E-003        
  0.000000000000000E+000  0.000000000000000E+000                                
   228.000000000000       2.707700000000000E-002 -5.725000000000000E-003        
  0.000000000000000E+000  0.000000000000000E+000                                
   64.7100000000000       0.101718000000000      -2.331200000000000E-002        
  0.000000000000000E+000  0.000000000000000E+000                                
   21.0600000000000       0.274740000000000      -6.395500000000000E-002        
  0.000000000000000E+000  0.000000000000000E+000                                
   7.49500000000000       0.448564000000000      -0.149981000000000             
  0.000000000000000E+000  0.000000000000000E+000                                
   2.79700000000000       0.285074000000000      -0.127262000000000             
  0.000000000000000E+000  0.000000000000000E+000                                
  0.521500000000000       1.520400000000000E-002  0.544529000000000             
  0.000000000000000E+000  0.000000000000000E+000                                
  0.159600000000000      -3.191000000000000E-003  0.580496000000000             
   1.00000000000000       0.000000000000000E+000                                
  4.690000000000000E-002  0.000000000000000E+000  0.000000000000000E+000        
  0.000000000000000E+000   1.00000000000000                                     
    5    3                                                                      
   9.43900000000000       3.810900000000000E-002  0.000000000000000E+000        
  0.000000000000000E+000                                                        
   2.00200000000000       0.209480000000000       0.000000000000000E+000        
  0.000000000000000E+000                                                        
  0.545600000000000       0.508557000000000       0.000000000000000E+000        
  0.000000000000000E+000                                                        
  0.151700000000000       0.468842000000000        1.00000000000000             
  0.000000000000000E+000                                                        
  4.041000000000000E-002  0.000000000000000E+000  0.000000000000000E+000        
   1.00000000000000                                                             
    2    2                                                                      
  0.550000000000000        1.00000000000000       0.000000000000000E+000        
  0.151000000000000       0.000000000000000E+000   1.00000000000000             
          8.00000000    1    3    1    1    1                                   
O #2   0.000000000000000   0.000000000000000  -0.918204249626604                
   10    4                                                                      
   11720.0000000000       7.100000000000000E-004 -1.600000000000000E-004        
  0.000000000000000E+000  0.000000000000000E+000                                
   1759.00000000000       5.470000000000000E-003 -1.263000000000000E-003        
  0.000000000000000E+000  0.000000000000000E+000                                
   400.800000000000       2.783700000000000E-002 -6.267000000000000E-003        
  0.000000000000000E+000  0.000000000000000E+000                                
   113.700000000000       0.104800000000000      -2.571600000000000E-002        
  0.000000000000000E+000  0.000000000000000E+000                                
   37.0300000000000       0.283062000000000      -7.092400000000000E-002        
  0.000000000000000E+000  0.000000000000000E+000                                
   13.2700000000000       0.448719000000000      -0.165411000000000             
  0.000000000000000E+000  0.000000000000000E+000                                
   5.02500000000000       0.270952000000000      -0.116955000000000             
  0.000000000000000E+000  0.000000000000000E+000                                
   1.01300000000000       1.545800000000000E-002  0.557368000000000             
  0.000000000000000E+000  0.000000000000000E+000                                
  0.302300000000000      -2.585000000000000E-003  0.572759000000000             
   1.00000000000000       0.000000000000000E+000                                
  7.896000000000000E-002  0.000000000000000E+000  0.000000000000000E+000        
  0.000000000000000E+000   1.00000000000000                                     
    5    3                                                                      
   17.7000000000000       4.301800000000000E-002  0.000000000000000E+000        
  0.000000000000000E+000                                                        
   3.85400000000000       0.228913000000000       0.000000000000000E+000        
  0.000000000000000E+000                                                        
   1.04600000000000       0.508728000000000       0.000000000000000E+000        
  0.000000000000000E+000                                                        
  0.275300000000000       0.460531000000000        1.00000000000000             
  0.000000000000000E+000                                                        
  6.856000000000000E-002  0.000000000000000E+000  0.000000000000000E+000        
   1.00000000000000                                                             
    2    2                                                                      
   1.18500000000000        1.00000000000000       0.000000000000000E+000        
  0.332000000000000       0.000000000000000E+000   1.00000000000000             
FINISH                                                                          
 
********************************************************************************
 ONE- AND TWO-ELECTRON INTEGRALS OVER SYMMETRY-ADAPTED AOS ARE CALCULATED.

  SPHERICAL HARMONICS ARE USED.
  
  INTEGRALS LESS THAN  0.10E-13 ARE NEGLECTED.

  NUCLEAR REPULSION ENERGY :   22.4080485891 A.U.
  @MOLECU-I, ONE ELECTRON INTEGRALS (CPU/WALL):        0.02/       0.05 SECONDS.
  @TWOEL-I,      20634 INTEGRALS OF SYMMETRY TYPE  I I I I
  @TWOEL-I,      54522 INTEGRALS OF SYMMETRY TYPE  I J I J
  @TWOEL-I,      31497 INTEGRALS OF SYMMETRY TYPE  I I J J
  @TWOEL-I,      23276 INTEGRALS OF SYMMETRY TYPE  I J K L
  @TWOEL-I, TOTAL NUMBER OF 2-E INTEGRALS     129929.
  @MOLECU-I, TWO ELECTRON INTEGRALS (CPU/WALL):        0.57/       0.16 SECONDS.
 @CHECKOUT-I, Total execution time (CPU/WALL):        0.61/       0.23 seconds.

Running with 20 threads/proc

--executable xvmol finished with status     0 in        0.81 seconds (walltime).
 --invoking executable--
/home/CEISAM/blondel-a/soft/cfour2.1/cfour2.1-serial-mkl/bin/xvmol2ja
 @GETMEM-I,  Allocated  238418 MB of main memory.
 @CHECKOUT-I, Total execution time (CPU/WALL):        0.03/       0.06 seconds.
--executable xvmol2ja finished with status     0 in        0.63 seconds (walltime).
 --invoking executable--
/home/CEISAM/blondel-a/soft/cfour2.1/cfour2.1-serial-mkl/bin/xvscf
  There are   46 functions in the AO basis.

  There are 4 irreducible representations.

       Irrep        # of functions
         1                 22
         2                 10
         3                 10
         4                  4


  Parameters for SCF calculation: 
        SCF reference function:  RHF  
  Maximum number of iterations:  150
     Full symmetry point group: CXv 
     Computational point group: C2v 
        Initial density matrix: MOREAD                 
     SCF convergence tolerance: 10**(- 8)
  DIIS convergence acceleration:  ON
          Latest start for DIIS:   8
                     DIIS order:   6

  Memory information:     124718 words required.
  Fock matrices are constructed from AO integral file.
 @GETMEM-I,  Allocated       0 MB of main memory.
  Initialization and symmetry analysis required      0.003 seconds.

  @INITGES-I, Occupancies from core Hamiltonian:

          Alpha population by irrep:   5    1    1    0
           Beta population by irrep:   5    1    1    0


 total no. of electrons in initial guess :  0.000000000000000E+000
  --------------------------------------------------------------------
  Iteration         Total Energy            Largest Density Difference
  --------------------------------------------------------------------
       0            22.408048589070660              0.0000000000D+00
   current occupation vector 
     5  1  1  0
     5  1  1  0
       1          -101.770413872132067              0.1172489943D+02
   current occupation vector 
     5  1  1  0
     5  1  1  0
       2           -99.556892574791718              0.1159131805D+02
   current occupation vector 
     5  1  1  0
     5  1  1  0
       3          -105.369528038964575              0.8816136348D+01
   current occupation vector 
     5  1  1  0
     5  1  1  0
       4          -101.277741407632362              0.8811206339D+01
   current occupation vector 
     5  1  1  0
     5  1  1  0
       5          -104.205473143904996              0.8778673672D+01
   current occupation vector 
     5  1  1  0
     5  1  1  0
       6          -100.851874086183884              0.8718002090D+01
   current occupation vector 
     5  1  1  0
     5  1  1  0
       7          -104.141123097515887              0.7480747250D+01
   current occupation vector 
     5  1  1  0
     5  1  1  0
       8          -100.790048666015451              0.7467250466D+01
   current occupation vector 
     5  1  1  0
     5  1  1  0
       9          -112.206171404067817              0.3931276014D+01
   current occupation vector 
     5  1  1  0
     5  1  1  0
      10          -112.610847449410983              0.4991632208D+00
   current occupation vector 
     5  1  1  0
     5  1  1  0
      11          -112.748787531133701              0.2734785535D+00
   current occupation vector 
     5  1  1  0
     5  1  1  0
      12          -112.753991182523407              0.6677754256D-01
   current occupation vector 
     5  1  1  0
     5  1  1  0
      13          -112.754132493540936              0.2621699120D-01
   current occupation vector 
     5  1  1  0
     5  1  1  0
      14          -112.754164899356738              0.9295512821D-02
   current occupation vector 
     5  1  1  0
     5  1  1  0
      15          -112.754165434523145              0.2119112090D-02
   current occupation vector 
     5  1  1  0
     5  1  1  0
      16          -112.754165448065606              0.2209579250D-03
   current occupation vector 
     5  1  1  0
     5  1  1  0
      17          -112.754165448183983              0.1935862245D-04
   current occupation vector 
     5  1  1  0
     5  1  1  0
      18          -112.754165448190037              0.4744245929D-05
   current occupation vector 
     5  1  1  0
     5  1  1  0
      19          -112.754165448190065              0.6517129028D-06
   current occupation vector 
     5  1  1  0
     5  1  1  0
      20          -112.754165448190463              0.2630119624D-06
   current occupation vector 
     5  1  1  0
     5  1  1  0

  SCF has converged.

 Density matrix saved to file den.dat
 total electron number:   14.0000000000000     
     E(SCF)=      -112.754165448190378              0.8578849187D-08

  Eigenvector printing suppressed.

 @PUTMOS-I, Writing converged MOs to NEWMOS. 
 @PUTMOS-I, Symmetry   1 Full Blocks  5 Partial Blocksize   2
 @PUTMOS-I, Symmetry   2 Full Blocks  2 Partial Blocksize   2
 @PUTMOS-I, Symmetry   3 Full Blocks  2 Partial Blocksize   2
 @PUTMOS-I, Symmetry   4 Full Blocks  1 Partial Blocksize   0
 @PUTFOCK-I, Writing converged Fock matrix to NEWFOCK. 
 @PUTFOCK-I, Symmetry   1 Full Blocks  5 Partial Blocksize   2
 @PUTFOCK-I, Symmetry   2 Full Blocks  2 Partial Blocksize   2
 @PUTFOCK-I, Symmetry   3 Full Blocks  2 Partial Blocksize   2
 @PUTFOCK-I, Symmetry   4 Full Blocks  1 Partial Blocksize   0


 
  ORBITAL EIGENVALUES (ALPHA)  (1H = 27.2113834 eV)

       MO #        E(hartree)               E(eV)           FULLSYM    COMPSYM
       ----   --------------------   --------------------   -------   ---------
    1     1         -20.6786426341        -562.6944729077     SG+        A1 (1)
    2     2         -11.3760025849        -309.5567678981     SG+        A1 (1)
    3     3          -1.5262528800         -41.5314522819     SG+        A1 (1)
    4     4          -0.8078514557         -21.9827556923     SG+        A1 (1)
    5    23          -0.6387300373         -17.3807279336      PI        B1 (2)
    6    33          -0.6387300373         -17.3807279336      PI        B2 (3)
    7     5          -0.5552995948         -15.1104701756     SG+        A1 (1)
  +++++++++++++++++++++++++++++++++++++++++++++++++++++++++++++++++++++++++++++
    8    24           0.0785902742           2.1385500839      PI        B1 (2)
    9    34           0.0785902742           2.1385500839      PI        B2 (3)
   10     6           0.0814344478           2.2159439821     SG+        A1 (1)
   11     7           0.1055195039           2.8713316758     SG+        A1 (1)
   12    35           0.1694667774           4.6114254545      PI        B2 (3)
   13    25           0.1694667774           4.6114254545      PI        B1 (2)
   14     8           0.2251901959           6.1277367582     SG+        A1 (1)
   15    26           0.2478783858           6.7451137915      PI        B1 (2)
   16    36           0.2478783858           6.7451137915      PI        B2 (3)
   17     9           0.3350066878           9.1159954230     SG+        A1 (1)
   18    43           0.4337503161          11.8029461502      DE        A2 (4)
   19    10           0.4337503161          11.8029461502      DE        A1 (1)
   20    11           0.5218862937          14.2012480300     SG+        A1 (1)
   21    27           0.6020431848          16.3824279244      PI        B1 (2)
   22    37           0.6020431848          16.3824279244      PI        B2 (3)
   23    12           0.6973668078          18.9763155777     SG+        A1 (1)
   24    28           0.7467300122          20.3195566571      PI        B1 (2)
   25    38           0.7467300122          20.3195566571      PI        B2 (3)
   26    13           0.9372377491          25.5035357283     SG+        A1 (1)
   27    44           1.0541785010          28.6856553637      DE        A2 (4)
   28    14           1.0541785010          28.6856553637      DE        A1 (1)
   29    15           1.0562226039          28.7412782301     SG+        A1 (1)
   30    39           1.2062288794          32.8231565053      PI        B2 (3)
   31    29           1.2062288794          32.8231565053      PI        B1 (2)
   32    16           1.4270267763          38.8313727312     SG+        A1 (1)
   33    45           1.6521204063          44.9564817992      DE        A2 (4)
   34    17           1.6521204063          44.9564817992      DE        A1 (1)
   35    40           1.6691368080          45.4195216294      PI        B2 (3)
   36    30           1.6691368080          45.4195216294      PI        B1 (2)
   37    31           1.9652423796          53.4769638665      PI        B1 (2)
   38    41           1.9652423796          53.4769638665      PI        B2 (3)
   39    18           2.1345639001          58.0844366780     SG+        A1 (1)
   40    19           2.2260613737          60.5742095116     SG+        A1 (1)
   41    20           2.9840348454          81.1997162579     SG+        A1 (1)
   42    21           3.5502389237          96.6069125133      DE        A1 (1)
   43    46           3.5502389237          96.6069125133      DE        A2 (4)
   44    32           3.6706196126          99.8826375947      PI        B1 (2)
   45    42           3.6706196126          99.8826375947      PI        B2 (3)
   46    22           4.0313995857         109.6999597643     SG+        A1 (1)


  VSCF finished.

 @CHECKOUT-I, Total execution time (CPU/WALL):        0.10/       0.39 seconds.
--executable xvscf finished with status     0 in        0.94 seconds (walltime).
 --invoking executable--
/home/CEISAM/blondel-a/soft/cfour2.1/cfour2.1-serial-mkl/bin/xvtran
 @GETMEM-I,  Allocated  238418 MB of main memory.
  Full RHF integral transformation
  The following   2 MOs will be dropped:
    1  2
  There are  44 active molecular orbitals.
  Transformation of IIII integrals :
  1 pass through the AO integral file was required.
       20634 AO integrals were read.
       21950 MO integrals were written to HF2.
  Transformation of IIJJ integrals :
  1 pass through the AO integral file was required.
       31497 AO integrals were read.
       29146 MO integrals were written to HF2.
  Transformation of IJIJ integrals :
  1 pass through the AO integral file was required.
       54522 AO integrals were read.
       49487 MO integrals were written to HF2.
  Transformation of IJKL integrals :
  1 pass through the AO integral file was required.
       23276 AO integrals were read.
       22808 MO integrals were written to HF2.
  Summary of active molecular orbitals: 
------------------------------------------------------------------------
 
  Index      Eigenvalue    Symmetry    Index      Eigenvalue    Symmetry
------------------------------------------------------------------------
     1        -1.5262529        1        23         0.0785903        2
     2        -0.8078515        1        24         0.1694668        2
     3        -0.5552996        1        25         0.2478784        2
     4        -0.6387300        2        26         0.6020432        2
     5        -0.6387300        3        27         0.7467300        2
     6         0.0814344        1        28         1.2062289        2
     7         0.1055195        1        29         1.6691368        2
     8         0.2251902        1        30         1.9652424        2
     9         0.3350067        1        31         3.6706196        2
    10         0.4337503        1        32         0.0785903        3
    11         0.5218863        1        33         0.1694668        3
    12         0.6973668        1        34         0.2478784        3
    13         0.9372377        1        35         0.6020432        3
    14         1.0541785        1        36         0.7467300        3
    15         1.0562226        1        37         1.2062289        3
    16         1.4270268        1        38         1.6691368        3
    17         1.6521204        1        39         1.9652424        3
    18         2.1345639        1        40         3.6706196        3
    19         2.2260614        1        41         0.4337503        4
    20         2.9840348        1        42         1.0541785        4
    21         3.5502389        1        43         1.6521204        4
    22         4.0313996        1        44         3.5502389        4
------------------------------------------------------------------------
  -1.52625287995882      -0.807851455736062      -0.555299594786239     
 -0.638730037281784      -0.638730037281783       8.143444783857537E-002
  0.105519503864132       0.225190195887270       0.335006687790657     
  0.433750316061234       0.521886293734787       0.697366807808261     
  0.937237749120589        1.05417850103549        1.05622260388817     
   1.42702677627305        1.65212040631471        2.13456390012086     
   2.22606137369628        2.98403484542891        3.55023892365960     
   4.03139958567253       7.859027424068604E-002  0.169466777441378     
  0.247878385761194       0.602043184781579       0.746730012156472     
   1.20622887939124        1.66913680799644        1.96524237964702     
   3.67061961262466       7.859027424068701E-002  0.169466777441374     
  0.247878385761206       0.602043184781580       0.746730012156540     
   1.20622887939124        1.66913680799643        1.96524237964703     
   3.67061961262467       0.433750316061234        1.05417850103549     
   1.65212040631471        3.55023892365961     
 @CHECKOUT-I, Total execution time (CPU/WALL):        0.07/       0.16 seconds.
--executable xvtran finished with status     0 in        0.72 seconds (walltime).
 --invoking executable--
/home/CEISAM/blondel-a/soft/cfour2.1/cfour2.1-serial-mkl/bin/xintprc
 @GETMEM-I,  Allocated  238418 MB of main memory.
  @GMOIAA-I, Processing MO integrals for spin case AA.
  @GMOIAA-I, Generation of integral list completed.
                      TYPE                NUMBER
                      ----               --------
                      PPPP                 75717
                      PPPH                 38439
                      PPHH                  5077
                      PHPH                  3248
                      PHHH                   861
                      HHHH                    49

                     TOTAL                123391

  @FORMT2-I, Second-order MP correlation energies:
            ------------------------------------------------
            E(SCF)                  =   -112.754165448190 a.u.
            E2(AA)                  =     -0.039651395505 a.u.
            E2(AB)                  =     -0.220928162489 a.u.
            E2(TOT)                 =     -0.300230953499 a.u.
            Total MP2 energy        =   -113.054396401690 a.u.
            ------------------------------------------------
   Largest T2 amplitudes for spin case AB:
       _       _                 _       _                 _       _
   i   j   a   b             i   j   a   b             i   j   a   b
-----------------------------------------------------------------------------
[  5   5  33  33]-0.03960 [  4   4  24  24]-0.03960 [  5   4  33  24]-0.03165
[  4   5  24  33]-0.03165 [  3   3  33  33]-0.02962 [  3   3  24  24]-0.02962
[  3   3  15  15]-0.02568 [  5   5  33  32]-0.02435 [  5   5  32  33]-0.02435
[  4   4  24  23]-0.02435 [  4   4  23  24]-0.02435 [  5   4  33  23]-0.01965
[  4   5  23  33]-0.01965 [  5   4  32  24]-0.01965 [  4   5  24  32]-0.01965
-----------------------------------------------------------------------------
   Norm of T2AB vector (    10269 symmetry allowed elements):  0.2699068942.
-----------------------------------------------------------------------------
 @CHECKOUT-I, Total execution time (CPU/WALL):        0.19/       0.15 seconds.
--executable xintprc finished with status     0 in        0.71 seconds (walltime).
  calling xncc 
 --invoking executable--
/home/CEISAM/blondel-a/soft/cfour2.1/cfour2.1-serial-mkl/bin/xncc
 @GETMEM-I,  Allocated       7 MB of main memory.

Running with 20 threads/proc

Following the lowest-energy eigenvector.
Using a partitioned Davidson procedure.
Using discrete restarting.
Using an orthogonal subspace.
Orthogonalizing against previous roots.
Using Modified Gram-Schmidt orthogonalization.

Using DIIS to accelerate the convergence of T1 and T2
Using DIIS to accelerate the convergence of T3
Using immediate high-order contributions
Performing 2 CCSDT sub-iterations
Damping factor for T3: 0.000000
Damping factor for T4: 0.000000

Transposes are coarse-threaded

Memory limit:                232.831 GiB
Minimum memory requirement:    9.641 MiB
Compromise memory amount:    425.265 MiB
Optimal memory requirement:  636.063 MiB

List              Location   Size        Cached Hunks Est. Disk I/O
----------------- ---------- ----------- ------ ----- -------------

           HR_DAV      470:1    2.603 MiB    Yes     -     8.055 GiB
                R        471  528.703 KiB    Yes     -    46.468 MiB
            R_DAV      470:0    2.603 MiB    Yes     -    14.772 GiB
           T_DIIS       70:0  403.828 KiB    Yes     -     7.099 MiB
           Z_DIIS       70:1  403.828 KiB    Yes     -    11.831 MiB
          <AI|bj>         18   80.227 KiB    Yes     -    14.875 MiB
          <Ab|Cd>        233    4.522 MiB    Yes     -    20.630 GiB
          <Ab|Ci>         30  605.086 KiB    Yes     -     3.323 GiB
          <Ab|Ij>         16   80.227 KiB    Yes     -   508.431 MiB
          <Ai|Bj>         25   80.227 KiB    Yes     -    13.241 MiB
          <Aj|bI>         21   80.227 KiB     No     -         0   B
          <Ij|Ka>         10   10.898 KiB    Yes     -    86.266 MiB
          <Ij|Kl>         13    1.539 KiB    Yes     -   120.047 KiB
           DD(AI)      448:8      552   B    Yes     -    43.688 KiB
        DD(Ab,Ij)        450   80.227 KiB    Yes     -     7.921 MiB
            F(EA)       92:0    3.648 KiB    Yes     -     4.450 MiB
            F(EM)       93:0      552   B    Yes     -   762.773 KiB
            F(MI)       91:0       88   B    Yes     -   136.984 KiB
           HR(AI)      490:2      552   B    Yes     -     3.157 MiB
        HR(Ab,Ij)        463   80.227 KiB    Yes     -  1012.217 MiB
            Q(AI)      190:2      552   B    Yes     -   194.062 KiB
         Q(Ab,Ij)         50   80.227 KiB    Yes     -   119.870 MiB
        QQ(Ab,Ij)          3   80.227 KiB    Yes     -    18.148 MiB
            R(AI)      490:0      552   B    Yes     -     7.377 MiB
         R(Ab,Ij)        446   80.227 KiB    Yes     -     1.601 GiB
            T(AI)       90:0      552   B    Yes     -     1.672 MiB
         T(Ab,Ij)         46   80.227 KiB    Yes     -   724.193 MiB
         W(Mn,Ij)         53    1.539 KiB    Yes     -     1.942 MiB
        W~(Ab,Ej)        130  605.086 KiB    Yes     -     1.839 GiB
        W~(EM,bj)         56   80.227 KiB    Yes     -   173.476 MiB
        W~(Em,Bj)         58   80.227 KiB    Yes     -   218.116 MiB
        W~(Ij,Mb)        110   10.898 KiB    Yes     -    19.280 MiB
       W~~(Ab,Ef)         33    4.522 MiB    Yes     -   501.903 MiB
       W~~(Ab,Ej)        169  605.086 KiB    Yes     -     1.829 GiB
       W~~(EM,bj)         76   80.227 KiB    Yes     -    52.962 MiB
       W~~(Em,Bj)         78   80.227 KiB    Yes     -    52.962 MiB
       W~~(Ij,Mb)        165   10.898 KiB    Yes     -    84.034 MiB
       W~~(Mn,Ij)        153    1.539 KiB    Yes     -   169.297 KiB
         X(Ab,Ef)        433    4.522 MiB    Yes     -    12.714 GiB
         X(Ab,Ej)        430  605.086 KiB    Yes     -     2.663 GiB
         X(Ab,Ij)        416   80.227 KiB     No     -         0   B
            X(EA)      492:0    3.648 KiB    Yes     -     3.466 MiB
            X(EM)      493:0      552   B    Yes     -   425.391 KiB
         X(EM,bj)        418   80.227 KiB    Yes     -   115.547 MiB
         X(Ef,Am)        469  605.086 KiB    Yes     -   777.127 MiB
         X(Em,Bj)        425   80.227 KiB    Yes     -   146.360 MiB
         X(Ij,Mb)        410   10.898 KiB    Yes     -    61.109 MiB
            X(MI)      491:0       88   B    Yes     -    74.648 KiB
         X(Mn,Ie)        465   10.898 KiB    Yes     -    35.196 MiB
         X(Mn,Ij)        413    1.539 KiB    Yes     -     1.559 MiB
            Z(AI)       90:2      552   B    Yes     -   194.062 KiB
         Z(Ab,Ij)         63   80.227 KiB    Yes     -    28.205 MiB
      HR(abc,ijk)    HR3FILE    3.478 MiB    Yes     1    17.115 GiB
    HR(abcd,ijkl)          -  199.981 MiB     No     1         0   B
            HR3_1      HR3_1    3.478 MiB    Yes     1    18.500 GiB
           HR3_10     HR3_10    3.478 MiB    Yes     1    19.538 GiB
           HR3_11     HR3_11    3.478 MiB    Yes     1    17.913 GiB
           HR3_12     HR3_12    3.478 MiB    Yes     1    18.262 GiB
           HR3_13     HR3_13    3.478 MiB    Yes     1    18.611 GiB
           HR3_14     HR3_14    3.478 MiB    Yes     1    18.960 GiB
           HR3_15     HR3_15    3.478 MiB    Yes     1    19.310 GiB
           HR3_16     HR3_16    3.478 MiB    Yes     1    19.659 GiB
           HR3_17     HR3_17    3.478 MiB    Yes     1    20.008 GiB
           HR3_18     HR3_18    3.478 MiB    Yes     1    20.357 GiB
           HR3_19     HR3_19    3.478 MiB    Yes     1    20.707 GiB
            HR3_2      HR3_2    3.478 MiB    Yes     1    16.065 GiB
           HR3_20     HR3_20    3.478 MiB    Yes     1    21.056 GiB
           HR3_21     HR3_21    3.478 MiB    Yes     1   417.498 MiB
           HR3_22     HR3_22    3.478 MiB    Yes     1   417.498 MiB
           HR3_23     HR3_23    3.478 MiB    Yes     1   417.498 MiB
           HR3_24     HR3_24    3.478 MiB    Yes     1   417.498 MiB
           HR3_25     HR3_25    3.478 MiB    Yes     1   417.498 MiB
           HR3_26     HR3_26    3.478 MiB    Yes     1   417.498 MiB
           HR3_27     HR3_27    3.478 MiB    Yes     1   417.498 MiB
           HR3_28     HR3_28    3.478 MiB    Yes     1   417.498 MiB
           HR3_29     HR3_29    3.478 MiB    Yes     1   417.498 MiB
            HR3_3      HR3_3    3.478 MiB    Yes     1    16.425 GiB
           HR3_30     HR3_30    3.478 MiB    Yes     1   417.498 MiB
           HR3_31     HR3_31    3.478 MiB     No     1         0   B
           HR3_32     HR3_32    3.478 MiB     No     1         0   B
           HR3_33     HR3_33    3.478 MiB     No     1         0   B
            HR3_4      HR3_4    3.478 MiB    Yes     1    16.784 GiB
            HR3_5      HR3_5    3.478 MiB    Yes     1    17.143 GiB
            HR3_6      HR3_6    3.478 MiB    Yes     1    17.502 GiB
            HR3_7      HR3_7    3.478 MiB    Yes     1    17.862 GiB
            HR3_8      HR3_8    3.478 MiB    Yes     1    18.221 GiB
            HR3_9      HR3_9    3.478 MiB    Yes     1    18.580 GiB
       Q(abc,ijk)     Q3FILE    3.478 MiB    Yes     1   208.690 MiB
       R(abc,ijk)     R3FILE    3.478 MiB    Yes     1    40.516 GiB
             R3_1       R3_1    3.478 MiB    Yes     1    34.068 GiB
            R3_10      R3_10    3.478 MiB    Yes     1    34.407 GiB
            R3_11      R3_11    3.478 MiB    Yes     1    32.582 GiB
            R3_12      R3_12    3.478 MiB    Yes     1    32.931 GiB
            R3_13      R3_13    3.478 MiB    Yes     1    33.281 GiB
            R3_14      R3_14    3.478 MiB    Yes     1    33.630 GiB
            R3_15      R3_15    3.478 MiB    Yes     1    33.979 GiB
            R3_16      R3_16    3.478 MiB    Yes     1    34.329 GiB
            R3_17      R3_17    3.478 MiB    Yes     1    34.678 GiB
            R3_18      R3_18    3.478 MiB    Yes     1    35.027 GiB
            R3_19      R3_19    3.478 MiB    Yes     1    35.376 GiB
           R3_1_1     R3_1_1    3.478 MiB    Yes     1   782.589 MiB
           R3_1_2     R3_1_2    3.478 MiB     No     1         0   B
           R3_1_3     R3_1_3    3.478 MiB     No     1         0   B
             R3_2       R3_2    3.478 MiB    Yes     1    30.934 GiB
            R3_20      R3_20    3.478 MiB    Yes     1    35.027 GiB
            R3_21      R3_21    3.478 MiB    Yes     1   417.498 MiB
            R3_22      R3_22    3.478 MiB    Yes     1   417.498 MiB
            R3_23      R3_23    3.478 MiB    Yes     1   417.498 MiB
            R3_24      R3_24    3.478 MiB    Yes     1   417.498 MiB
            R3_25      R3_25    3.478 MiB    Yes     1   417.498 MiB
            R3_26      R3_26    3.478 MiB    Yes     1   417.498 MiB
            R3_27      R3_27    3.478 MiB    Yes     1   417.498 MiB
            R3_28      R3_28    3.478 MiB    Yes     1   417.498 MiB
            R3_29      R3_29    3.478 MiB    Yes     1   417.498 MiB
           R3_2_1     R3_2_1    3.394 MiB    Yes     1   509.124 MiB
           R3_2_2     R3_2_2    3.394 MiB     No     1         0   B
             R3_3       R3_3    3.478 MiB    Yes     1    31.293 GiB
            R3_30      R3_30    3.478 MiB    Yes     1   417.498 MiB
            R3_31      R3_31    3.478 MiB     No     1         0   B
            R3_32      R3_32    3.478 MiB     No     1         0   B
            R3_33      R3_33    3.478 MiB     No     1         0   B
             R3_4       R3_4    3.478 MiB    Yes     1    31.652 GiB
           R3_4_1     R3_4_1    3.311 MiB    Yes     1   496.583 MiB
           R3_4_2     R3_4_2    3.311 MiB     No     1         0   B
             R3_5       R3_5    3.478 MiB    Yes     1    32.012 GiB
             R3_6       R3_6    3.478 MiB    Yes     1    32.371 GiB
             R3_7       R3_7    3.478 MiB    Yes     1    32.730 GiB
             R3_8       R3_8    3.478 MiB    Yes     1    33.089 GiB
             R3_9       R3_9    3.478 MiB    Yes     1    33.449 GiB
       T(abc,ijk)     T3FILE    3.478 MiB    Yes     1     1.685 GiB
     T(abcd,ijkl)          -  199.981 MiB     No     1         0   B
             T3_1       T3_1    3.478 MiB    Yes     1   104.345 MiB
             T3_2       T3_2    3.478 MiB    Yes     1    52.173 MiB
             T3_3       T3_3    3.478 MiB    Yes     1    52.173 MiB
             T3_4       T3_4    3.478 MiB    Yes     1    52.173 MiB
             T3_5       T3_5    3.478 MiB    Yes     1    52.173 MiB
       W(abc,ije)    WABCIJE   66.951 MiB    Yes     1    15.757 GiB
       W(abm,ijk)    WABMIJK    1.129 MiB    Yes     1   271.986 MiB
       X(abc,ije)    XABCIJE   66.951 MiB    Yes     1    13.596 GiB
       X(abm,ijk)    XABMIJK    1.129 MiB    Yes     1   229.683 MiB
       X(mnd,jkl)    XMNDJKL  152.438 KiB     No     1         0   B
       Z(abc,ijk)     Z3FILE    3.478 MiB    Yes     1   573.898 MiB
     Z(abcd,ijkl)          -  199.981 MiB     No     1         0   B
             Z3_1       Z3_1    3.478 MiB    Yes     1   104.345 MiB
             Z3_2       Z3_2    3.478 MiB    Yes     1   104.345 MiB
             Z3_3       Z3_3    3.478 MiB    Yes     1   104.345 MiB
             Z3_4       Z3_4    3.478 MiB    Yes     1   104.345 MiB
             Z3_5       Z3_5    3.478 MiB    Yes     1   104.345 MiB

Simulation and memory analysis took 4.156 seconds

MP2 correlation energy:  -0.300230953499370

Non-iterative calculation of MP2 took 0.068 cpu seconds and 0.004 walltime seconds at 0.137 Gflops/sec

Total MP2 energy: -113.054396401689743

Beginning iterative solution of CC4 equations:

It.  Correlation Energy T1 Residual T2 Residual T3 Residual CPU Time (s) Walltime (s)
-------------------------------------------------------------------------------------
  1  -0.319327094059652 1.94774e-03 2.45939e-03 1.00002e-03      140.516        7.193
  2  -0.320872991496933 3.11626e-04 2.90518e-04 2.14979e-04      131.983        6.812
  3  -0.321071610574353 3.86471e-05 1.17526e-05 3.80632e-05      129.845        6.510
  4  -0.321068530504012 9.14277e-06 3.83264e-06 6.20964e-06      129.409        6.487
  5  -0.321065944173639 1.16003e-06 4.19029e-07 9.52146e-07      128.079        6.419

   A    I                     A    I                     A    I                  
-------------------------- -------------------------- -------------------------- 
  12    6  0.0259986767329   10    7  0.0122046073641   20    4  0.0070739909825 
  13    5  0.0259986767329   36    5  0.0117308991521   26    7 -0.0068856968413 
   9    6  0.0146484740507   35    6  0.0117308991521   29    7  0.0064047361610 
   8    5  0.0146484740507   24    5  0.0102496535807   15    5  0.0062108356928 
  17    7 -0.0126448284974   25    6  0.0102496535807   16    6  0.0062108356928 

   A    B    I    J                     A    B    I    J                  
------------------------------------ ------------------------------------ 
  12   12    6    6 -0.0508417642138   13    8    5    5 -0.0317619642960 
  13   13    5    5 -0.0508417642138    8   13    5    5 -0.0317619642960 
  12   12    7    7 -0.0503250326430   29   29    7    7 -0.0303046056095 
  13   13    7    7 -0.0503250326430   12    9    7    7 -0.0288476075992 
  12   13    6    5 -0.0362957965306    9   12    7    7 -0.0288476075992 
  13   12    5    6 -0.0362957965306   13    8    7    7 -0.0288476075992 
  12    9    6    6 -0.0317619642960    8   13    7    7 -0.0288476075992 
   9   12    6    6 -0.0317619642960 

It.  Correlation Energy T1 Residual T2 Residual T3 Residual CPU Time (s) Walltime (s)
-------------------------------------------------------------------------------------
  6  -0.321065707642433 1.23524e-07 3.44447e-08 1.48896e-07      128.992        6.466
  7  -0.321065672367387 1.66782e-08 8.67153e-09 2.31246e-08      125.903        6.310

CC4 iterations converged in 7 cycles and 46.198 seconds (6.600 s/it.) at 3.156 Gflops/sec

Total CC4 energy: -113.075231120557760

             _
Formation of H took 0.236 seconds at 3.891 Gflops/sec

Searching for 3 roots in irrep 1

EOMEE-CCSD guess vector:

   A    I                  
-------------------------- 
  10    7  1.0000000000000 

Beginning iterative solution of EOMEE-CC4 equations:

It.  Correlation Energy R1 Residual R2 Residual R3 Residual CPU Time (s) Walltime (s)
-------------------------------------------------------------------------------------
  1   0.526045413186735 2.20523e-02 6.43775e-02 4.32965e-03      248.309       12.446
  2   0.444443277776687 5.38465e-02 3.80468e-02 3.33095e-03      244.758       12.268
  3   0.412788629341780 2.21572e-02 1.08300e-02 5.13141e-03      246.602       12.360
  4   0.407137067206562 7.06661e-03 5.39839e-03 3.17092e-03      248.587       12.460
  5   0.403390146539752 6.56970e-03 5.61713e-03 8.33016e-04      262.743       13.171
  6   0.401645529641538 3.32325e-03 1.24434e-03 4.84164e-04      247.382       12.399
  7   0.401861968071254 1.90931e-03 8.12964e-04 4.27964e-04      261.833       13.125
  8   0.401761902972793 2.37662e-03 4.49229e-04 2.87932e-04      260.156       13.041
  9   0.401476619634271 1.81597e-03 6.08636e-04 2.03202e-04      254.319       12.747
Locking on root: 0.401483395665054
 10   0.401483395665054 1.90448e-03 3.04988e-04 1.14094e-04      257.315       12.898
 11   0.401677157826626 1.40293e-03 3.31981e-04 1.28028e-04      265.509       13.308
 12   0.401500109967662 7.30775e-04 3.76274e-04 8.21887e-05      263.053       13.185
 13   0.401448992395701 3.79448e-04 4.43338e-04 9.65764e-05      267.525       13.410
 14   0.401505870586767 1.11652e-04 3.20173e-04 6.82938e-05      269.342       13.500
 15   0.401495539677848 1.03013e-04 1.57949e-04 3.35695e-05      281.825       14.128
 16   0.401474893137576 4.87106e-05 5.22850e-05 1.10228e-05      280.678       14.070
 17   0.401479795312592 2.10636e-05 1.50765e-05 5.23051e-06      277.552       13.911
 18   0.401483748705041 1.02378e-05 6.95624e-06 2.59048e-06      283.259       14.198
 19   0.401482381088403 8.78967e-06 2.65396e-06 1.15558e-06      287.491       14.410

EOMEE-CC4 iterations converged in 19 cycles and 251.036 seconds (13.212 s/it.) at 3.277 Gflops/sec

EOMEE-CC4 excitation energy:   0.401482381088400 ( 10.924891000141351 eV)
Total EOMEE-CC4 energy:      -112.673748739469360

Converged root:

   A    I                     A    I                     A    I                  
-------------------------- -------------------------- -------------------------- 
  10    7 -0.6278251093337   12    6 -0.0656215892254   35    6 -0.0093488565275 
  17    7  0.1375251972296    8    5 -0.0429642134967   36    5 -0.0093488565275 
  11    7  0.0984778470573    9    6 -0.0429642134967   23    7  0.0073827630132 
  14    7  0.0683909550474   24    5 -0.0195532103536   29    7 -0.0070847796484 
  13    5 -0.0656215892255   25    6 -0.0195532103536   32    7 -0.0065952893393 

   A    B    I    J                     A    B    I    J                  
------------------------------------ ------------------------------------ 
  10   10    7    7  0.0790786611493   10   29    7    7  0.0459778107283 
  13   10    5    7 -0.0737774826998   11   10    7    7 -0.0440117739782 
  10   13    7    5 -0.0737774826998   10   11    7    7 -0.0440117739782 
  12   10    6    7 -0.0737774826998   10   13    5    7 -0.0438970018159 
  10   12    7    6 -0.0737774826998   13   10    7    5 -0.0438970018159 
  17   10    7    7 -0.0481543418356   10   12    6    7 -0.0438970018159 
  10   17    7    7 -0.0481543418356   12   10    7    6 -0.0438970018159 
  29   10    7    7  0.0459778107283 

EOMEE-CCSD guess vector:

   A    I                  
-------------------------- 
  11    7  1.0000000000000 

Beginning iterative solution of EOMEE-CC4 equations:

It.  Correlation Energy R1 Residual R2 Residual R3 Residual CPU Time (s) Walltime (s)
-------------------------------------------------------------------------------------
  1   0.523467814328604 4.14162e-02 8.55846e-02 2.77032e-03      243.847       12.223
  2   0.436412143017896 3.99324e-02 9.48470e-03 8.49466e-03      242.922       12.176
  3   0.427887233545044 1.55858e-02 3.73889e-03 1.98545e-03      245.054       12.283
  4   0.425714580862582 4.00345e-03 2.73754e-03 2.25088e-03      247.857       12.425
  5   0.423496380804588 2.24018e-03 3.14685e-03 7.89075e-04      250.458       12.555
  6   0.422844139497984 1.69461e-03 1.86439e-03 4.44643e-04      250.960       12.580
  7   0.423067003804754 6.73826e-04 1.46637e-03 3.18502e-04      252.982       12.681
Locking on root: 0.423041305703448
  8   0.423041305703448 4.61056e-04 9.14063e-04 1.72429e-04      254.852       12.774
  9   0.422922035569351 2.98999e-04 3.17766e-04 1.29498e-04      256.693       12.867
 10   0.422965441051778 2.53282e-04 1.10546e-04 7.19790e-05      260.350       13.050
 11   0.422997794998620 1.15584e-04 9.28003e-05 2.91356e-05      260.845       13.074
 12   0.422973656395199 6.83305e-05 2.85841e-05 1.55801e-05      265.664       13.316
 13   0.422967487473045 3.08628e-05 3.51547e-05 8.83760e-06      267.957       13.431
 14   0.422974827842771 1.33075e-05 9.69958e-06 2.44105e-06      274.086       13.738
 15   0.422975173775120 7.55624e-06 3.66042e-06 1.45127e-06      277.780       13.924

EOMEE-CC4 iterations converged in 15 cycles and 193.097 seconds (12.873 s/it.) at 3.345 Gflops/sec

EOMEE-CC4 excitation energy:   0.422975173775114 ( 11.509739622276262 eV)
Total EOMEE-CC4 energy:      -112.652255946782645

Converged root:

   A    I                     A    I                     A    I                  
-------------------------- -------------------------- -------------------------- 
  11    7  0.6500607219482   13    5 -0.0518420962626   24    5 -0.0197369302103 
  10    7  0.1001981944635   20    7 -0.0513553089010   11    4 -0.0167446302748 
  17    7 -0.0671029486398   23    7 -0.0295492456311   16    6  0.0163651598350 
  14    7  0.0580343622059   10    4  0.0231711029686   15    5  0.0163651598350 
  12    6 -0.0518420962626   25    6 -0.0197369302103   14    4  0.0141575330924 

   A    B    I    J                     A    B    I    J                  
------------------------------------ ------------------------------------ 
  11   11    7    7  0.0986620642418   13   11    7    5  0.0397801537062 
  13   11    5    7  0.0552629160544   11   12    6    7  0.0397801537061 
  11   13    7    5  0.0552629160544   12   11    7    6  0.0397801537061 
  12   11    6    7  0.0552629160544   25   11    6    7  0.0356703400287 
  11   12    7    6  0.0552629160544   11   25    7    6  0.0356703400287 
  29   11    7    7 -0.0510172689319   24   11    5    7  0.0356703400287 
  11   29    7    7 -0.0510172689319   11   24    7    5  0.0356703400287 
  11   13    5    7  0.0397801537062 

EOMEE-CCSD guess vector:

   A    I                  
-------------------------- 
   9    6  1.0000000000000 

Beginning iterative solution of EOMEE-CC4 equations:

It.  Correlation Energy R1 Residual R2 Residual R3 Residual CPU Time (s) Walltime (s)
-------------------------------------------------------------------------------------
  1   0.631888677875119 1.09204e-01 9.07421e-02 5.11117e-03      247.000       12.381
  2   0.482047857142677 7.37518e-02 1.60413e-02 9.53494e-03      247.277       12.394
  3   0.445103917095321 6.30124e-02 1.83944e-02 6.73223e-03      248.712       12.466
  4   0.404275794782768 2.62660e-02 1.36260e-02 4.48931e-03      249.952       12.529
  5   0.379730623861894 1.41856e-02 6.97289e-03 2.23842e-03      250.856       12.574
  6   0.374078767180418 2.66494e-03 2.68210e-03 1.22886e-03      251.040       12.583
  7   0.374252681329485 2.88267e-03 1.40056e-03 8.15565e-04      253.304       12.697
  8   0.373908035132314 7.00711e-04 7.45548e-04 2.62605e-04      257.737       12.919
  9   0.373648184547943 5.55566e-04 5.66926e-04 1.98035e-04      259.947       13.029
Locking on root: 0.373628924027846
 10   0.373628924027846 2.62235e-04 4.71675e-04 1.01140e-04      259.884       13.026
 11   0.373649254910733 1.28912e-04 2.60529e-04 5.94022e-05      264.480       13.256
 12   0.373650031230095 5.05005e-05 1.19161e-04 2.85995e-05      267.839       13.425
 13   0.373641087876130 5.79416e-05 4.08833e-05 1.19966e-05      270.925       13.579
 14   0.373636984003781 1.47701e-05 1.32746e-05 6.87810e-06      276.228       13.846
 15   0.373638796687106 8.19231e-06 6.84916e-06 2.13463e-06      280.124       14.041

EOMEE-CC4 iterations converged in 15 cycles and 194.744 seconds (12.983 s/it.) at 3.330 Gflops/sec

EOMEE-CC4 excitation energy:   0.373638796687104 ( 10.167228549767424 eV)
Total EOMEE-CC4 energy:      -112.701592323870656

Converged root:

   A    I                     A    I                     A    I                  
-------------------------- -------------------------- -------------------------- 
  13    5 -0.3522848706900   15    5 -0.1027536816677   31    5 -0.0173925980610 
  12    6  0.3522432875064   24    5 -0.0471679794520   30    6  0.0173906146451 
   9    6  0.2867714193969   25    6  0.0471602791656   19    7  0.0148438409413 
   8    5 -0.2867428213174   21    5 -0.0429231999015   34    7 -0.0087443193803 
  16    6  0.1027627049500   22    6  0.0429217538813   36    5  0.0079817756048 

   A    B    I    J                     A    B    I    J                  
------------------------------------ ------------------------------------ 
  13   13    5    5  0.0949768499970    9    9    6    6 -0.0507435361634 
  12   12    6    6 -0.0949595287178    8    8    5    5  0.0507331215584 
  13    8    5    5  0.0647256024656   12    9    7    7  0.0403125320310 
   8   13    5    5  0.0647256024656    9   12    7    7  0.0403125320310 
  12    9    6    6 -0.0647209670083   13    8    7    7 -0.0403071369424 
   9   12    6    6 -0.0647209670083    8   13    7    7 -0.0403071369424 
  13   13    7    7 -0.0539600508723   15   13    5    5  0.0353178625036 
  12   12    7    7  0.0539415443074 

Searching for 2 roots in irrep 2

EOMEE-CCSD guess vector:

   A    I                  
-------------------------- 
   8    7  1.0000000000000 

Beginning iterative solution of EOMEE-CC4 equations:

It.  Correlation Energy R1 Residual R2 Residual R3 Residual CPU Time (s) Walltime (s)
-------------------------------------------------------------------------------------
  1   0.483102640826469 3.29995e-02 6.65244e-02 3.60230e-03      236.445       11.850
  2   0.409583187994543 1.12200e-01 2.25687e-02 1.97261e-03      237.149       11.886
  3   0.357272780708837 3.49578e-02 1.33326e-02 2.67097e-03      236.925       11.874
  4   0.331302155622103 3.19147e-02 8.25914e-03 4.28483e-03      238.727       11.965
  5   0.318957251731871 9.83158e-03 4.88679e-03 2.26793e-03      239.066       11.982
  6   0.315179905037933 4.00061e-03 2.29582e-03 7.07994e-04      240.645       12.061
  7   0.314834696433949 1.81964e-03 8.25784e-04 5.75093e-04      242.610       12.159
  8   0.314720933467388 1.01233e-03 4.40543e-04 1.80382e-04      245.747       12.317
  9   0.314624006347530 2.89454e-04 3.56327e-04 1.34582e-04      246.078       12.333
Locking on root: 0.314648501533636
 10   0.314648501533636 1.89232e-04 2.37796e-04 5.53580e-05      248.279       12.443
 11   0.314661654574357 1.36630e-04 1.06252e-04 2.70062e-05      250.334       12.546
 12   0.314660710963089 5.01436e-05 4.34771e-05 1.39728e-05      255.054       12.783
 13   0.314660432739076 3.48105e-05 1.93883e-05 9.03796e-06      255.959       12.828
 14   0.314664380060919 9.86089e-06 7.74170e-06 4.68629e-06      259.488       13.005

EOMEE-CC4 iterations converged in 14 cycles and 172.034 seconds (12.288 s/it.) at 3.154 Gflops/sec

EOMEE-CC4 excitation energy:   0.314664380060918 (  8.562453088160964 eV)
Total EOMEE-CC4 energy:      -112.760566740496841

Converged root:

   A    I                     A    I                     A    I                  
-------------------------- -------------------------- -------------------------- 
   8    7  0.4679539098952   24    7  0.0465506893346   24    4  0.0208589622408 
  13    7  0.4458075386182    8    4  0.0455159557407   31    7  0.0205995679686 
  15    7  0.1440194890578   18    6 -0.0218233991553   21    4  0.0199441785626 
  13    4  0.0853233036906   19    5 -0.0218233991553   11    5 -0.0187556385884 
  21    7  0.0517294737957   15    4  0.0216154051789   20    5  0.0176483650415 

   A    B    I    J                     A    B    I    J                  
------------------------------------ ------------------------------------ 
  13    8    5    7  0.0437759752823   13    8    5    4 -0.0332279733661 
   8   13    7    5  0.0437759752823    8   13    4    5 -0.0332279733661 
  13   13    5    4 -0.0389439804816    8   13    5    4 -0.0307952472504 
  13   13    4    5 -0.0389439804816   13    8    4    5 -0.0307952472504 
  13    8    7    5  0.0355796395536    8   29    7    7 -0.0301744059327 
   8   13    5    7  0.0355796395536   29    8    7    7 -0.0301744059327 
   8   12    7    6  0.0346968187426    8    8    5    7  0.0289088225448 
  12    8    6    7  0.0346968187426 

EOMEE-CCSD guess vector:

   A    I                  
-------------------------- 
  13    7  1.0000000000000 

Beginning iterative solution of EOMEE-CC4 equations:

It.  Correlation Energy R1 Residual R2 Residual R3 Residual CPU Time (s) Walltime (s)
-------------------------------------------------------------------------------------
  1   0.616884468654265 9.00449e-01 3.36088e-02 4.58198e-03      236.859       11.871
  2   0.486302508586551 6.86816e-02 2.39670e-02 3.38755e-03      237.415       11.899
  3   0.438305930013738 1.38028e-02 4.50811e-03 2.89411e-03      240.936       12.076
  4   0.436229788987308 1.54201e-02 2.81919e-03 1.35465e-03      240.402       12.049
  5   0.434302258545377 4.39329e-03 2.36516e-03 6.76685e-04      241.005       12.079
  6   0.432403179951092 5.14999e-03 1.22412e-03 6.45001e-04      243.119       12.185
  7   0.432212437558905 1.77830e-03 1.33895e-03 5.47611e-04      244.558       12.257
  8   0.432495955273855 1.05097e-03 9.28224e-04 3.06977e-04      246.225       12.340
  9   0.432032465228504 7.90021e-04 9.82720e-04 2.52137e-04      249.525       12.506
 10   0.431972875238661 4.67100e-04 6.39872e-04 1.48311e-04      251.486       12.605
 11   0.432160339720040 3.44580e-04 2.51157e-04 8.07295e-05      254.088       12.735
Locking on root: 0.432139280822060
 12   0.432139280822060 1.21508e-04 1.09636e-04 3.41952e-05      257.218       12.892
 13   0.432069390964413 8.55769e-05 5.49228e-05 1.83694e-05      260.348       13.048
 14   0.432080823442548 5.02201e-05 3.27298e-05 8.69048e-06      263.884       13.226
 15   0.432095682997445 3.76044e-05 1.69217e-05 4.84355e-06      266.999       13.382
 16   0.432086434565323 1.99774e-05 1.01573e-05 2.80385e-06      271.875       13.626
 17   0.432084409498810 1.22930e-05 6.14000e-06 1.58533e-06      279.664       14.017
 18   0.432086879104897 7.53164e-06 3.12719e-06 8.66530e-07      283.410       14.204

EOMEE-CC4 iterations converged in 18 cycles and 228.996 seconds (12.722 s/it.) at 3.097 Gflops/sec

EOMEE-CC4 excitation energy:   0.432086879104901 ( 11.757681729432905 eV)
Total EOMEE-CC4 energy:      -112.643144241452859

Converged root:

   A    I                     A    I                     A    I                  
-------------------------- -------------------------- -------------------------- 
  13    7  0.4764245292992   21    7  0.0405947231222   24    4  0.0113872995352 
   8    7 -0.4493662564363   15    7 -0.0383070080623   31    7  0.0109146056049 
  24    7  0.0816001312821   10    5 -0.0275763989403   17    5  0.0090096049614 
  13    4  0.0786880823584   15    4  0.0120946813324   21    4  0.0079106587944 
   8    4  0.0610541635834    8    3 -0.0114627953440   37    7  0.0055999302231 

   A    B    I    J                     A    B    I    J                  
------------------------------------ ------------------------------------ 
   8   12    7    6 -0.0598928270898   13   13    5    4 -0.0416402766169 
  12    8    6    7 -0.0598928270898   13   13    4    5 -0.0416402766169 
   8   13    7    5 -0.0535730380322    8   10    7    7  0.0409567698077 
  13    8    5    7 -0.0535730380322   10    8    7    7  0.0409567698077 
   8   11    7    7 -0.0498304299694    8   12    6    7 -0.0392930867812 
  11    8    7    7 -0.0498304299694   12    8    7    6 -0.0392930867812 
   8   29    7    7  0.0425348018639    8    8    5    7 -0.0364178978136 
  29    8    7    7  0.0425348018639 

Searching for 2 roots in irrep 4

EOMEE-CCSD guess vector:

   A    I                  
-------------------------- 
   8    6  1.0000000000000 

Beginning iterative solution of EOMEE-CC4 equations:

It.  Correlation Energy R1 Residual R2 Residual R3 Residual CPU Time (s) Walltime (s)
-------------------------------------------------------------------------------------
  1   0.602090863576288 5.01859e-02 4.93541e-02 4.06006e-03      236.039       11.831
  2   0.505578325701331 1.35297e-01 2.36583e-02 2.94454e-03      236.567       11.857
  3   0.437972090724324 4.59062e-02 1.28362e-02 4.00385e-03      237.049       11.881
  4   0.397271842675603 4.12528e-02 5.51536e-03 6.46121e-03      238.258       11.942
  5   0.376192133586112 1.09965e-02 4.59362e-03 1.90897e-03      244.963       12.279
  6   0.371867655639442 3.81331e-03 1.60151e-03 1.17739e-03      241.192       12.089
  7   0.371607107159889 1.56950e-03 8.97092e-04 3.87654e-04      242.776       12.168
  8   0.371442763063446 1.42923e-03 4.65957e-04 1.88430e-04      245.729       12.316
  9   0.371273893042942 1.52814e-03 4.35943e-04 1.09800e-04      247.751       12.418
Locking on root: 0.371288089559770
 10   0.371288089559770 1.60793e-03 7.42948e-04 1.90017e-04      249.999       12.530
 11   0.371193687054336 1.53468e-03 1.22739e-03 3.58735e-04      252.436       12.653
 12   0.370558646974405 1.32236e-03 1.73794e-03 7.53099e-04      256.693       12.866
 13   0.370003127095602 8.54178e-04 1.62428e-03 5.42566e-04      259.400       13.002
 14   0.369754020734543 9.17989e-04 1.14034e-03 3.81865e-04      263.073       13.186
 15   0.369644804431371 3.18262e-04 6.52182e-04 3.54979e-04      266.965       13.382
 16   0.369565681484577 9.83148e-05 3.76683e-04 1.64898e-04      270.224       13.544
 17   0.369533119906904 1.13130e-04 1.57859e-04 6.96935e-05      274.609       13.764
 18   0.369543766945965 6.44858e-05 5.18788e-05 3.36707e-05      279.710       14.020
 19   0.369536733513138 2.11862e-05 2.10469e-05 1.40828e-05      284.367       14.254
Compacting subspace
 20   0.369530521126141 4.98201e-06 9.10181e-06 5.66084e-06      317.234       15.901

EOMEE-CC4 iterations converged in 20 cycles and 257.885 seconds (12.894 s/it.) at 2.892 Gflops/sec

EOMEE-CC4 excitation energy:   0.369530521126137 ( 10.055436688365115 eV)
Total EOMEE-CC4 energy:      -112.705700599431623

Converged root:

   A    I                     A    I                     A    I                  
-------------------------- -------------------------- -------------------------- 
  13    6  0.3566423712540   15    6  0.1116932033578   30    5 -0.0202410078357 
  12    5 -0.3565916420146   22    5 -0.0486504248416   31    6  0.0202385269583 
   8    6  0.2896199765942   21    6  0.0486494884019   36    6 -0.0120719884160 
   9    5 -0.2895842311981   24    6  0.0484586389205   35    5  0.0120707300378 
  16    5 -0.1117101755949   25    5 -0.0484521573278   37    6  0.0065949324891 

   A    B    I    J                     A    B    I    J                  
------------------------------------ ------------------------------------ 
  12   13    6    6 -0.0425416760348    9   13    6    6 -0.0303523033406 
  13   12    6    6 -0.0425416760348   13    9    6    6 -0.0303523033406 
  13   13    6    5 -0.0425366749287   12    8    5    5  0.0303418023491 
  13   13    5    6 -0.0425366749287    8   12    5    5  0.0303418023491 
  12   12    6    5  0.0425364365708   13    8    6    5 -0.0294633355213 
  12   12    5    6  0.0425364365708    8   13    5    6 -0.0294633355213 
  12   13    5    5  0.0425314354646    9   12    6    5  0.0294618150007 
  13   12    5    5  0.0425314354646 

EOMEE-CCSD guess vector:

   A    I                  
-------------------------- 
   9    5  1.0000000000000 

Beginning iterative solution of EOMEE-CC4 equations:

It.  Correlation Energy R1 Residual R2 Residual R3 Residual CPU Time (s) Walltime (s)
-------------------------------------------------------------------------------------
  1   0.648175882245951 2.04783e-01 4.79304e-02 4.43007e-03      244.238       12.243
  2   0.479925885324099 7.39049e-02 1.02245e-02 5.18611e-03      245.754       12.319
  3   0.430678189561607 5.44421e-02 8.34627e-03 5.90309e-03      245.940       12.328
  4   0.394913976974656 1.93640e-02 6.29641e-03 2.59815e-03      247.410       12.402
  5   0.376211482701968 7.87596e-03 3.67343e-03 1.50274e-03      248.546       12.459
  6   0.373740304797875 5.13188e-03 1.90481e-03 7.32883e-04      250.593       12.562
  7   0.373931256296045 1.05030e-03 9.33382e-04 3.57692e-04      253.350       12.700
  8   0.373734762892400 7.81245e-04 4.93070e-04 1.29560e-04      254.679       12.767
  9   0.373644110495904 2.46562e-04 2.46255e-04 8.05641e-05      256.267       12.846
Locking on root: 0.373636249435977
 10   0.373636249435977 8.83809e-05 1.28310e-04 3.78594e-05      259.100       12.988
 11   0.373649592257119 5.74828e-05 7.96136e-05 2.57874e-05      264.119       13.241
 12   0.373646368855720 5.28566e-05 3.25117e-05 1.75990e-05      265.766       13.323
 13   0.373637414838550 1.91149e-05 2.35517e-05 7.42459e-06      269.409       13.506
 14   0.373637823221442 1.54723e-05 8.01536e-06 2.72442e-06      272.831       13.678
 15   0.373639061625220 8.05611e-06 4.04151e-06 2.11241e-06      276.799       13.875

EOMEE-CC4 iterations converged in 15 cycles and 193.237 seconds (12.882 s/it.) at 2.848 Gflops/sec

EOMEE-CC4 excitation energy:   0.373639061625227 ( 10.167235759100265 eV)
Total EOMEE-CC4 energy:      -112.701592058932533

Converged root:

   A    I                     A    I                     A    I                  
-------------------------- -------------------------- -------------------------- 
  13    6  0.3522946134493   15    6  0.1027532549761   31    6  0.0173924887820 
  12    5  0.3522297880003   24    6  0.0471697704062   30    5  0.0173914738580 
   9    5  0.2867578721238   25    5  0.0471570130655   18    7 -0.0148493731288 
   8    6  0.2867535837571   21    6  0.0429238789515   33    7  0.0087461495830 
  16    5  0.1027621511966   22    5  0.0429208297848   35    5 -0.0079813622296 

   A    B    I    J                     A    B    I    J                  
------------------------------------ ------------------------------------ 
  12   13    7    7  0.0539704534199   12   12    6    5 -0.0469311052909 
  13   12    7    7  0.0539704534199   12   12    5    6 -0.0469311052909 
  12   13    6    6 -0.0480366915366    9   13    7    7  0.0403309495478 
  13   12    6    6 -0.0480366915366   13    9    7    7  0.0403309495478 
  12   13    5    5 -0.0480266415763   12    8    7    7  0.0403197197072 
  13   12    5    5 -0.0480266415763    8   12    7    7  0.0403197197072 
  13   13    6    5 -0.0469411552432    9   13    6    6 -0.0356471114986 
  13   13    5    6 -0.0469411552432 

 @CHECKOUT-I, Total execution time (CPU/WALL):    30686.12/    1542.41 seconds.
--executable xncc finished with status     0 in     1545.85 seconds (walltime).
  The final electronic energy is      -112.701592058932533 a.u. 
  This computation required                         1552.92 seconds (walltime).
