 --invoking executable--
/home/CEISAM/blondel-a/soft/cfour2.1/cfour2.1-serial-mkl/bin/xjoda


   *************************************************************************
         <<<     CCCCCC     CCCCCC   |||     CCCCCC     CCCCCC   >>>
       <<<      CCC        CCC       |||    CCC        CCC         >>>
      <<<      CCC        CCC        |||   CCC        CCC            >>>
    <<<        CCC        CCC        |||   CCC        CCC              >>>
      <<<      CCC        CCC        |||   CCC        CCC            >>>
       <<<      CCC        CCC       |||    CCC        CCC         >>>
         <<<     CCCCCC     CCCCCC   |||     CCCCCC     CCCCCC   >>>
   *************************************************************************

     ****************************************************************
     * CFOUR Coupled-Cluster techniques for Computational Chemistry *
     ****************************************************************
 

   Department of Chemistry                Institut fuer Physikalische Chemie
   University of Florida                  Universitaet Mainz
   Gainesville, FL 32611, USA             D-55099 Mainz, Germany

   Department of Chemistry                Fakultaet fuer Chemie und Biowiss.
   Johns Hopkins University               Karlsruher Institut fuer Technologie
   Baltimore, MD 21218, USA               D-76131 Karlsruhe, Germany

   Department of Chemistry                Department of Physical Chemistry
   Southern Methodist University          Eotvos Lorand University
   Dallas, TX 75275, USA                  H-1053 Budapest, Hungary

 
                       Version 2.1
 
                     cribbar042                                        
                     Tue Mar 16 12:34:40 CET 2021                      
                     integer*8 version is running
 
********************************************************************************
*                          Input from ZMAT file                                *
********************************************************************************
Ketene -GS                                                                      
S    0.0000000000            0.0000000000           -0.5036508625               
H    0.0000000000            1.8182810536            1.2521228828               
H    0.0000000000           -1.8182810536            1.2521228828               
                                                                                
*CFOUR(COORD=CARTESIAN,UNITS=BOHR                                               
       MEMORY=250,MEM_UNIT=GB,CC_PROG=NCC                                       
       FROZEN_CORE=1                                                            
       CALC=CC4,BASIS=AUG-PVTZ                                                  
       SCF_CONV=8,CC_CONV=7,ESTATE_CONV=5,ESTATE_MAXCYC=120                     
       EXCITE=EOMEE,ESTATE_SYM=1/1/1/1)                                         
                                                                                
********************************************************************************
    -------------------------------------------------------------------
                    CFOUR Control Parameters 
    -------------------------------------------------------------------
        External           Internal           Value            Units
          Name               Name
    -------------------------------------------------------------------
       ABCDTYPE             IABCDT         STANDARD    [  0]    ***   
       ANHARMONIC           IANHAR         OFF         [  0]    ***   
       ANH_ALGORIT          IANALG         STANDARD    [  0]    ***   
       ANH_DERIVAT          IANDER         SECOND      [  1]    ***   
       ANH_MODE             ANHMOD         VIBRATION   [  0]    ***   
       ANH_STEPSIZ          ICUBST             50000          x 10-6  
       ANH_SYMMETR          IANHSM         ABELIAN     [  0]    ***   
       AO_LADDERS           IAOLAD         SINGLEPASS  [  1]    ***   
       AV_SCF               IAVSCF         OFF         [  0]    ***   
       BASIS                IBASIS         AUG-PVTZ    [ 34]    ***   
       BOTHVECTORS          BOTHVC         OFF         [  0]    ***   
       BOX_POTENT           IPIAB          OFF         [  0]    ***   
       BREIT                IBREIT         OFF         [  0]    ***   
       BRUCK_CONV           IBRTOL          10D-  4             ***   
       BRUECKNER            IBRKNR         OFF         [  0]    ***   
       BUFFERSIZE           IBUFFS              4096            ***   
       CACHE_RECS           ICHREC             10               ***   
       CALCLEVEL            ICLLVL         CC4         [ 52]    ***   
       CCORBOPT             ICCORB         OFF         [  0]  x 0.01  
       CC_CONV              ICCCNV          10D-  7             ***   
       CC_EXPORDER          ICCEOR              5               ***   
       CC_EXTRAPOL          ICCEXT         DIIS        [  1]    ***   
       CC_GUESS             ICCGES         MP2         [  0]    ***   
       CC_MAXCYC            ICCCYC            100              cycles 
       CC_PROGRAM           ICCPRO         NCC         [  5]    ***   
       CHARGE               ICHRGE              0               ***   
       CHOLESKY             ICHOLE         OFF         [  0]    ***   
       CIS_CONV             ICISTL              5               ***   
       COMM_SIZE            IPSIZE            ***               ***   
       CONSTANT             ICONST         OLD         [  1]    ***   
       CONTINUUM            ICONTU         NONE        [  0]    ***   
       CONTRACTION          ICNTYP         GENERAL     [  1]    ***   
       COORDINATES          ICOORD         CARTESIAN   [  1]    ***   
       CPHF_CONVER          ICPHFT          10D- 16             ***   
       CPHF_MAXCYC          ICPHFC             64              cycles 
       CUBIC                ICUBIC         OFF         [  0]    ***   
       CURVILINEAR          ICURVY         OFF         [  0]    ***   
       DBOC                 IDBOC          OFF         [  0]    ***   
       DCT                  IDCT           OFF         [  0]    ***   
       DERIV_LEV            IDRLVL         ZERO        [  0]    ***   
       DEVMEM_SIZE          IDVMEM         *********           MByte  
       DIAG_MRCC            IEOMST          10D-  0             ***   
       DIFF_TYPE            IDIFTY         RELAXED     [  0]    ***   
       DIRECT               IDIRCT         OFF         [  0]    ***   
       DROPMO               IDRPMO      NONE         
       ECP                  IECP           OFF         [  0]    ***   
       EIGENVECTOR          IVEC                1               ***   
       EL_ANHARM            IELANH         OFF         [  0]    ***   
       EOMFOLLOW            IEOMSR         ENERGY      [  0]    ***   
       EOMIP                IEOMIP         OFF         [  0]    ***   
       EOMLEVEL             HBARFM         SAME        [  0]    ***   
       EOM_MRCC             IMRCCE         NEW         [  1]    ***   
       EOM_NONIT            EOMNON         OFF         [  0]    ***   
       EOM_NSING            IEOMSI          10D-  0             ***   
       EOM_NSTATES          IMRCCD         DAVIDSON    [  0]    ***   
       EOM_NTRIP            IEOMTR          10D-  0             ***   
       EOM_ORDER            IEXORD         ENERGY      [  0]    ***   
       EOM_PROPSTA          IEOMST              0               ***   
       ESTATE_CONV          IEXTOL          10D-  5             ***   
       ESTATE_DIAG          IEXDIG         ITERATIVE   [  0]    ***   
       ESTATE_LOCK          IESLOC         ON          [  1]    ***   
       ESTATE_MAXC          IEXMXC            120               ***   
       ESTATE_PROP          IEXPRP         OFF         [  0]    ***   
       ESTATE_SYM           IEXSYM   1,  1,  1,  1,
       EVAL_HESS            IRECAL              0            # of cyc.
       EXCITATION           IEXCIT              0               ***   
       EXCITE               IEXCIT         EOMEE       [  3]    ***   
       EXTERN_POT           IEXPOT         OFF         [  0]    ***   
       FCGRADNEW            IFCGNW         OFF         [  0]    ***   
       FC_FIELD             IFINFC              0             x 10-6  
       FD_CALTYPE           IFDCAL         GRADONLY    [  0]    ***   
       FD_PROJECT           IFDPRJ         OFF         [  1]    ***   
       FD_STEPSIZE          IDISFD              0            10-4 bohr
       FD_USEGROUP          IFDGRP         FULL        [  0]    ***   
       FILE_RECSIZ          IFLREC              4096           words  
       FINITE_PERT          IFIPER              0             x 10-6  
       FIXGEOM              IFIXGM         OFF         [  0]    ***   
       FOCK                 IFOCK          AO          [  1]    ***   
       FREQ_ALGORI          IVIALG         STANDARD    [  0]    ***   
       FROZEN_CORE          IFROCO         ON          [  1]    ***   
       GAMMA_ABCD           IGABCD         STORE       [  0]    ***   
       GAMMA_ABCI           IGABCI         STORE       [  0]    ***   
       GENBAS_1             IGNBS1              0               ***   
       GENBAS_2             IGNBS2              0               ***   
       GENBAS_3             IGNBS3              0               ***   
       GENBAS_4             IGNBS4              0               ***   
       GEO_CONV             ICONTL              5              H/bohr 
       GEO_MAXCYC           IOPTCY             50               ***   
       GEO_MAXSTEP          IMXSTP            300            millibohr
       GEO_METHOD           INR            SINGLE_POINT[  5]    ***   
       GIAO                 IGIAO          OFF         [  1]    ***   
       GIMIC                IGIMIC         OFF         [  0]    ***   
       GRID                 IGRID          OFF         [  0]    ***   
       GRID_ALGO            IGALGO         SERIAL      [  0]    ***   
       GUESS                IGUESS         MOREAD      [  0]    ***   
       HBAR                 IHBAR          ON          [  1]    ***   
       HESS_TYPE            IHESTP         SCF         [  0]    ***   
       HF2_FILE             IHF2Fl         USE         [  1]    ***   
       HFSTABILITY          ISTABL         OFF         [  0]    ***   
       INCORE               INCORE         OFF         [  0]    ***   
       INPUT_MRCC           IMRCC          ON          [  1]    ***   
       INTEGRALS            INTTYP         VMOL        [  1]    ***   
       JODA_PRINT           IJPRNT              0               ***   
       KEYWORD_OUT          IDMPKW         NO          [  0]    ***   
       LINDEP_TOL           ILINDP              8               ***   
       LINEQ_CONV           IZTACN          10D-  7           cycles  
       LINEQ_EXPOR          ILMAXD              5               ***   
       LINEQ_MAXCY          ILMAXC            100               ***   
       LINEQ_TYPE           ILTYPE         DIIS        [  1]    ***   
       LOCK_ORBOCC          ILOCOC         OFF         [  0]    ***   
       MEMORY_SIZE          IMEMSZ         *********           words  
       MEM_UNIT             IMEMU          GB          [  3]    ***   
       MRCC                 IMRCCC         OFF         [  0]    ***   
       MULTIPLICTY          IMULTP              1               ***   
       NACOUPLING           IVCOUP         OFF         [  0]    ***   
       NEGEVAL              IDIE           ABORT       [  0]    ***   
       NEWNORM              INEWNO         OFF         [  0]    ***   
       NON-HF               INONHF         OFF         [  0]    ***   
       NTOP_TAMP            ITOPT2             15               ***   
       NUC_MODEL            INUCMO         POINT       [  0]    ***   
       OCCUPATION           IOCCU   ESTIMATED BY SCF 
       OPEN-SHELL           IOPEN          SPIN-ORBITAL[  0]    ***   
       OPTVIB               IOPTVB         OFF         [  0]    ***   
       ORBITALS             IORBTP         STANDARD    [  0]    ***   
       PARALLEL             IPARAL         ON          [  1]    ***   
       PARA_INT             IPINTS         ON          [  1]    ***   
       PARA_PRINT           IPPRIN              0               ***   
       PERT_ORB             IPTORB         STANDARD    [  0]    ***   
       POINTS               IGRDFD              0               ***   
       PRINT                IPRNT               0               ***   
       PROPS                IPROPS         OFF         [  0]    ***   
       PROP_INTEGR          IINTYP         INTERNAL    [  0]    ***   
       PSI                  IPSI           OFF         [  0]    ***   
       QC_ALG               IQCALG         FLM         [  0]    ***   
       QC_LINALG            IQCLIN         TRIDIAG     [  2]    ***   
       QC_MAXCYC            IQCMAX          10D-100           cycles  
       QC_MAXSCFCY          IQCMSC          10D- 15           cycles  
       QC_RTRUST            IQCRTR          10D-  0           x 10-3  
       QC_SKIPSCF           IQCSKI         OFF         [  0]    ***   
       QC_START             IQCSTA          10D-  1             ***   
       QRHFGUESS            IQGUES         OFF         [  0]    ***   
       QUARTIC              IQUART         OFF         [  0]    ***   
       RAMAN_INT            IRAMIN         OFF         [  0]    ***   
       RAMAN_ORB            IRAMRE         UNRELAXED   [  0]    ***   
       RDO                  IRDOFM         OFF         [  0]    ***   
       REDUCE_REPR          REDREP         Ir          [  0]    ***   
       REFERENCE            IREFNC         RHF         [  0]    ***   
       RELATIVIST           IRELAT         OFF         [  0]    ***   
       RELAX_DENS           IRDENS         OFF         [  0]    ***   
       RESET_FLAGS          IRESET         OFF         [  0]    ***   
       RESTART_CC           ICCRES         OFF         [  0]    ***   
       ROT_EVEC             ROTVEC              0               ***   
       SAVE_INTS            ISVINT         OFF         [  0]    ***   
       SCALE_ON             ISTCRT              0               ***   
       SCF_CONV             ISCFCV          10D-  8             ***   
       SCF_DAMPING          IDAMP               0             x 10-3  
       SCF_EXPORDE          IRPPOR              6               ***   
       SCF_EXPSTAR          IRPPLS              8               ***   
       SCF_EXTRAPO          IRPP           ON          [  1]    ***   
       SCF_MAXCYC           ISCFCY            150              cycles 
       SCF_NOSTOP           ISCFST         OFF         [  0]    ***   
       SCF_PRINT            ISCFPR              0               ***   
       SCF_PROG             ISCFPR         SCF         [  0]    ***   
       SD_FIELD             IFINSD              0             x 10-6  
       SOPERT               IPERSO         OFF         [  0]    ***   
       SPHERICAL            IDFGHI         ON          [  1]    ***   
       SPINORBIT            ISOCAL         OFF         [  0]    ***   
       SPINROTATIO          ISRCON         OFF         [  0]    ***   
       SPIN_FLIP            ISPFLP         OFF         [  0]    ***   
       SPIN_ORBIT           ISPORB         OFF         [  0]    ***   
       SPIN_SCAL            ISCSMP         OFF         [  0]    ***   
       STEEPSCALE           ISTPSC              1000          x 10-3  
       SUBGROUP             ISUBGP         DEFAULT     [  0]    ***   
       SUBGRPAXIS           ISBXYZ         X           [  0]    ***   
       SYMMETRY             ISYM           ON          [  0]    ***   
       SYM_CHECK            ISYMCK         OVERRIDE    [  1]    ***   
       T3_EXTRAPOL          IT3EXT         ON          [  1]    ***   
       T4_EXTRAPOL          IT4EXP         OFF         [  0]    ***   
       TAMP_SUM             IEVERY              5               ***   
       TESTSUITE            ITESTS         OFF         [  0]    ***   
       THERMOCH             ITHERM         OFF         [  0]    ***   
       TOL_CHOLESK          ITOLCH          10D-  4             ***   
       TRANGRAD             IRESRM         OFF         [  0]    ***   
       TRANS_INV            ITRAIN         USE         [  0]    ***   
       TREAT_PERT           ITREAT         SIMULTANEOUS[  0]    ***   
       TRIP_ALGORI          ITRALG         NORMAL      [  0]    ***   
       UIJ_THRESHO          IUIJTH              1               ***   
       UNITS                IUNITS         BOHR        [  1]    ***   
       UNOS                 IUNOS          OFF         [  0]    ***   
       UPDATE_HESS          IHUPDT         ON          [  1]    ***   
       VIBPHASE             ISETPH         STANDARD    [  0]    ***   
       VIBRATION            IVIB           NO          [  0]    ***   
       VIB_ALGORIT          IGEALG         STANDARD    [  0]    ***   
       VNATORB              IVNORB         OFF         [  0]    ***   
       VTRAN                IVTRAN         FULL/PARTIAL[  0]    ***   
       XFIELD               IXEFLD              0             x 10-6  
       XFORM_TOL            IXFTOL          10D- 11             ***   
       YFIELD               IYEFLD              0             x 10-6  
       ZFIELD               IZEFLD              0             x 10-6  
       ZSCALE_EXP           IZEXPS         OFF         [  0]    ***   
    -------------------------------------------------------------------
  @GETXYZ-I,     3 atoms read from ZMAT.
   Rotational constants (in cm-1): 
          4.8124145846             9.0335261580            10.2989632655
   Rotational constants (in MHz): 
     144272.5799367765        270818.3390724506        308755.1944770041
********************************************************************************
   The full molecular point group is C2v .
   The largest Abelian subgroup of the full molecular point group is C2v .
   The computational point group is C2v .
********************************************************************************


 ----------------------------------------------------------------
         Coordinates used in calculation (QCOMP) 
 ----------------------------------------------------------------
 Z-matrix   Atomic            Coordinates (in bohr)
  Symbol    Number           X              Y              Z
 ----------------------------------------------------------------
     S        16         0.00000000     0.00000000    -0.10412659
     H         1         0.00000000     1.81828105     1.65164716
     H         1         0.00000000    -1.81828105     1.65164716
 ----------------------------------------------------------------
 
   Interatomic distance matrix (Angstroms) 
 
                 S             H             H    
                [ 1]        [ 2]        [ 3]
  S    [ 1]     0.00000
  H    [ 2]     1.33756     0.00000
  H    [ 3]     1.33756     1.92439     0.00000
 rotcon2
   Rotational constants (in cm-1): 
          4.8124145846            10.2989632655             9.0335261580
   Rotational constants (in MHz): 
     144272.5799367765        308755.1944770041        270818.3390724506
  There are   5 frozen-core orbitals.
  There are   96 basis functions.
 @GEOPT-W, Archive file not created for single-point calculation.
 @CHECKOUT-I, Total execution time (CPU/WALL):        0.19/       8.99 seconds.
--executable xjoda finished with status     0 in       11.10 seconds (walltime).
 --invoking executable--
/home/CEISAM/blondel-a/soft/cfour2.1/cfour2.1-serial-mkl/bin/xvmol
 SERIAL VERSION OF MOLECULE STARTED
********************************************************************************
                    INPUT FROM MOL FILE
********************************************************************************
INTGRL        1    0    1    0    0    0    0    0    0                         
         *** CFOUR Program System (Release V0.1) ***                            
Ketene -GS                                                                      
    2    2 X  Y       0.10E-08              0    0                              
   9999.00      3.00                                                            
         16.00000000    1    4    1    1    1    1                              
S #1   0.000000000000000   0.000000000000000  -0.104126590204952                
   16    6                                                                      
   374100.000000000       5.420000000000000E-005 -1.500000000000000E-005        
  4.400000000000000E-006  0.000000000000000E+000  0.000000000000000E+000        
  0.000000000000000E+000                                                        
   56050.0000000000       4.209000000000000E-004 -1.162000000000000E-004        
  3.370000000000000E-005  0.000000000000000E+000  0.000000000000000E+000        
  0.000000000000000E+000                                                        
   12760.0000000000       2.207000000000000E-003 -6.116000000000000E-004        
  1.777000000000000E-004  0.000000000000000E+000  0.000000000000000E+000        
  0.000000000000000E+000                                                        
   3615.00000000000       9.192600000000000E-003 -2.553700000000000E-003        
  7.411000000000000E-004  0.000000000000000E+000  0.000000000000000E+000        
  0.000000000000000E+000                                                        
   1183.00000000000       3.211230000000000E-002 -9.087100000000001E-003        
  2.645900000000000E-003  0.000000000000000E+000  0.000000000000000E+000        
  0.000000000000000E+000                                                        
   428.800000000000       9.466830000000000E-002 -2.770450000000000E-002        
  8.074899999999999E-003  0.000000000000000E+000  0.000000000000000E+000        
  0.000000000000000E+000                                                        
   167.800000000000       0.223630000000000      -7.200200000000000E-002        
  2.122760000000000E-002  0.000000000000000E+000  0.000000000000000E+000        
  0.000000000000000E+000                                                        
   69.4700000000000       0.374393000000000      -0.146439000000000             
  4.383230000000000E-002  0.000000000000000E+000  0.000000000000000E+000        
  0.000000000000000E+000                                                        
   29.8400000000000       0.329108000000000      -0.195150000000000             
  6.127160000000000E-002  0.000000000000000E+000  0.000000000000000E+000        
  0.000000000000000E+000                                                        
   12.7200000000000       8.470380000000000E-002  8.191900000000000E-003        
 -3.615100000000000E-003  0.000000000000000E+000  0.000000000000000E+000        
  0.000000000000000E+000                                                        
   5.24400000000000       4.409000000000000E-004  0.516601000000000             
 -0.204510000000000       0.000000000000000E+000  0.000000000000000E+000        
  0.000000000000000E+000                                                        
   2.21900000000000       1.648300000000000E-003  0.542178000000000             
 -0.381871000000000       0.000000000000000E+000  0.000000000000000E+000        
  0.000000000000000E+000                                                        
  0.776700000000000      -6.223000000000000E-004  6.884300000000000E-002        
  8.268440000000001E-002   1.00000000000000       0.000000000000000E+000        
  0.000000000000000E+000                                                        
  0.349000000000000       3.013000000000000E-004 -9.180700000000000E-003        
  0.714147000000000       0.000000000000000E+000  0.000000000000000E+000        
  0.000000000000000E+000                                                        
  0.132200000000000      -8.410000000000000E-005  2.268300000000000E-003        
  0.393791000000000       0.000000000000000E+000   1.00000000000000             
  0.000000000000000E+000                                                        
  4.970000000000000E-002  0.000000000000000E+000  0.000000000000000E+000        
  0.000000000000000E+000  0.000000000000000E+000  0.000000000000000E+000        
   1.00000000000000                                                             
   10    5                                                                      
   574.400000000000       2.422600000000000E-003 -6.200999999999999E-004        
  0.000000000000000E+000  0.000000000000000E+000  0.000000000000000E+000        
   135.800000000000       1.927960000000000E-002 -4.938800000000000E-003        
  0.000000000000000E+000  0.000000000000000E+000  0.000000000000000E+000        
   43.1900000000000       8.854010000000000E-002 -2.326470000000000E-002        
  0.000000000000000E+000  0.000000000000000E+000  0.000000000000000E+000        
   15.8700000000000       0.254654000000000      -6.851950000000000E-002        
  0.000000000000000E+000  0.000000000000000E+000  0.000000000000000E+000        
   6.20800000000000       0.433984000000000      -0.123896000000000             
  0.000000000000000E+000  0.000000000000000E+000  0.000000000000000E+000        
   2.48300000000000       0.354953000000000      -9.694990000000001E-002        
  0.000000000000000E+000  0.000000000000000E+000  0.000000000000000E+000        
  0.868800000000000       6.189410000000000E-002  0.228215000000000             
   1.00000000000000       0.000000000000000E+000  0.000000000000000E+000        
  0.322900000000000      -5.029800000000000E-003  0.569394000000000             
  0.000000000000000E+000  0.000000000000000E+000  0.000000000000000E+000        
  0.109800000000000       2.098100000000000E-003  0.366302000000000             
  0.000000000000000E+000   1.00000000000000       0.000000000000000E+000        
  3.510000000000000E-002  0.000000000000000E+000  0.000000000000000E+000        
  0.000000000000000E+000  0.000000000000000E+000   1.00000000000000             
    3    3                                                                      
  0.269000000000000        1.00000000000000       0.000000000000000E+000        
  0.000000000000000E+000                                                        
  0.819000000000000       0.000000000000000E+000   1.00000000000000             
  0.000000000000000E+000                                                        
  0.101000000000000       0.000000000000000E+000  0.000000000000000E+000        
   1.00000000000000                                                             
    2    2                                                                      
  0.557000000000000        1.00000000000000       0.000000000000000E+000        
  0.218000000000000       0.000000000000000E+000   1.00000000000000             
          1.00000000    1    3    1    1    1                                   
H #2   0.000000000000000   1.818281053600000   1.651647155095048                
    6    4                                                                      
   33.8700000000000       6.068000000000000E-003  0.000000000000000E+000        
  0.000000000000000E+000  0.000000000000000E+000                                
   5.09500000000000       4.530800000000000E-002  0.000000000000000E+000        
  0.000000000000000E+000  0.000000000000000E+000                                
   1.15900000000000       0.202822000000000       0.000000000000000E+000        
  0.000000000000000E+000  0.000000000000000E+000                                
  0.325800000000000       0.503903000000000        1.00000000000000             
  0.000000000000000E+000  0.000000000000000E+000                                
  0.102700000000000       0.383421000000000       0.000000000000000E+000        
   1.00000000000000       0.000000000000000E+000                                
  2.526000000000000E-002  0.000000000000000E+000  0.000000000000000E+000        
  0.000000000000000E+000   1.00000000000000                                     
    3    3                                                                      
   1.40700000000000        1.00000000000000       0.000000000000000E+000        
  0.000000000000000E+000                                                        
  0.388000000000000       0.000000000000000E+000   1.00000000000000             
  0.000000000000000E+000                                                        
  0.102000000000000       0.000000000000000E+000  0.000000000000000E+000        
   1.00000000000000                                                             
    2    2                                                                      
   1.05700000000000        1.00000000000000       0.000000000000000E+000        
  0.247000000000000       0.000000000000000E+000   1.00000000000000             
FINISH                                                                          
 
********************************************************************************
 ONE- AND TWO-ELECTRON INTEGRALS OVER SYMMETRY-ADAPTED AOS ARE CALCULATED.

  SPHERICAL HARMONICS ARE USED.
  
  INTEGRALS LESS THAN  0.10E-13 ARE NEGLECTED.

  NUCLEAR REPULSION ENERGY :   12.9350915216 A.U.
  @MOLECU-I, ONE ELECTRON INTEGRALS (CPU/WALL):        0.04/       0.34 SECONDS.
  @TWOEL-I,     318692 INTEGRALS OF SYMMETRY TYPE  I I I I
  @TWOEL-I,    1030403 INTEGRALS OF SYMMETRY TYPE  I J I J
  @TWOEL-I,     553516 INTEGRALS OF SYMMETRY TYPE  I I J J
  @TWOEL-I,     665794 INTEGRALS OF SYMMETRY TYPE  I J K L
  @TWOEL-I, TOTAL NUMBER OF 2-E INTEGRALS    2568405.
  @MOLECU-I, TWO ELECTRON INTEGRALS (CPU/WALL):       26.16/       1.44 SECONDS.
 @CHECKOUT-I, Total execution time (CPU/WALL):       26.21/       1.81 seconds.

Running with 20 threads/proc

--executable xvmol finished with status     0 in        4.38 seconds (walltime).
 --invoking executable--
/home/CEISAM/blondel-a/soft/cfour2.1/cfour2.1-serial-mkl/bin/xvmol2ja
 @GETMEM-I,  Allocated  238418 MB of main memory.
 @CHECKOUT-I, Total execution time (CPU/WALL):        1.07/       2.48 seconds.
--executable xvmol2ja finished with status     0 in        4.18 seconds (walltime).
 --invoking executable--
/home/CEISAM/blondel-a/soft/cfour2.1/cfour2.1-serial-mkl/bin/xvscf
  There are   96 functions in the AO basis.

  There are 4 irreducible representations.

       Irrep        # of functions
         1                 37
         2                 19
         3                 28
         4                 12


  Parameters for SCF calculation: 
        SCF reference function:  RHF  
  Maximum number of iterations:  150
     Full symmetry point group: C2v 
     Computational point group: C2v 
        Initial density matrix: MOREAD                 
     SCF convergence tolerance: 10**(- 8)
  DIIS convergence acceleration:  ON
          Latest start for DIIS:   8
                     DIIS order:   6

  Memory information:     429704 words required.
  Fock matrices are constructed from AO integral file.
 @GETMEM-I,  Allocated       3 MB of main memory.
  Initialization and symmetry analysis required      0.003 seconds.

  @INITGES-I, Occupancies from core Hamiltonian:

          Alpha population by irrep:   5    2    2    0
           Beta population by irrep:   5    2    2    0


 total no. of electrons in initial guess :  0.000000000000000E+000
  --------------------------------------------------------------------
  Iteration         Total Energy            Largest Density Difference
  --------------------------------------------------------------------
       0            12.935091521591783              0.0000000000D+00
   current occupation vector 
     5  2  2  0
     5  2  2  0
       1          -380.683889834529793              0.2480161411D+02
   current occupation vector 
     5  2  2  0
     5  2  2  0
       2          -390.621312313235876              0.4240020806D+02
   current occupation vector 
     5  1  3  0
     5  1  3  0
       3          -396.263366431112729              0.4239982551D+02
   current occupation vector 
     5  2  2  0
     5  2  2  0
       4          -396.829433590114377              0.1693897460D+02
   current occupation vector 
     6  1  2  0
     6  1  2  0
       5          -398.186510054048995              0.1694194454D+02
   current occupation vector 
     5  2  2  0
     5  2  2  0
       6          -398.642310453584798              0.1193966953D+01
   current occupation vector 
     5  2  2  0
     5  2  2  0
       7          -398.705194595660942              0.3305409176D+00
   current occupation vector 
     5  2  2  0
     5  2  2  0
       8          -398.713756411239842              0.8758949857D-01
   current occupation vector 
     5  2  2  0
     5  2  2  0
       9          -398.713821052382855              0.9377352965D-02
   current occupation vector 
     5  2  2  0
     5  2  2  0
      10          -398.713824739605911              0.3285476255D-02
   current occupation vector 
     5  2  2  0
     5  2  2  0
      11          -398.713824997185782              0.7919530493D-03
   current occupation vector 
     5  2  2  0
     5  2  2  0
      12          -398.713825005116632              0.9472793355D-04
   current occupation vector 
     5  2  2  0
     5  2  2  0
      13          -398.713825005330932              0.1685582132D-04
   current occupation vector 
     5  2  2  0
     5  2  2  0
      14          -398.713825005335934              0.2502254941D-05
   current occupation vector 
     5  2  2  0
     5  2  2  0
      15          -398.713825005334854              0.3316936248D-06
   current occupation vector 
     5  2  2  0
     5  2  2  0
      16          -398.713825005337128              0.1166425734D-06
   current occupation vector 
     5  2  2  0
     5  2  2  0
      17          -398.713825005337924              0.3281565686D-07
   current occupation vector 
     5  2  2  0
     5  2  2  0

  SCF has converged.

 Density matrix saved to file den.dat
 total electron number:   18.0000000000000     
     E(SCF)=      -398.713825005337299              0.3924183423D-08

  Eigenvector printing suppressed.

 @PUTMOS-I, Writing converged MOs to NEWMOS. 
 @PUTMOS-I, Symmetry   1 Full Blocks  9 Partial Blocksize   1
 @PUTMOS-I, Symmetry   2 Full Blocks  4 Partial Blocksize   3
 @PUTMOS-I, Symmetry   3 Full Blocks  7 Partial Blocksize   0
 @PUTMOS-I, Symmetry   4 Full Blocks  3 Partial Blocksize   0
 @PUTFOCK-I, Writing converged Fock matrix to NEWFOCK. 
 @PUTFOCK-I, Symmetry   1 Full Blocks  9 Partial Blocksize   1
 @PUTFOCK-I, Symmetry   2 Full Blocks  4 Partial Blocksize   3
 @PUTFOCK-I, Symmetry   3 Full Blocks  7 Partial Blocksize   0
 @PUTFOCK-I, Symmetry   4 Full Blocks  3 Partial Blocksize   0


 
  ORBITAL EIGENVALUES (ALPHA)  (1H = 27.2113834 eV)

       MO #        E(hartree)               E(eV)           FULLSYM    COMPSYM
       ----   --------------------   --------------------   -------   ---------
    1     1         -91.9669013939       -2502.5466139405      A1        A1 (1)
    2     2          -8.9690547848        -244.0603884846      A1        A1 (1)
    3    57          -6.6503376672        -180.9648880029      B2        B2 (3)
    4     3          -6.6495695275        -180.9439858576      A1        A1 (1)
    5    38          -6.6482700924        -180.9086264306      B1        B1 (2)
    6     4          -0.9822451390         -26.7282490688      A1        A1 (1)
    7    58          -0.5891931961         -16.0327619551      B2        B2 (3)
    8     5          -0.5020662079         -13.6619160756      A1        A1 (1)
    9    39          -0.3855043496         -10.4901066595      B1        B1 (2)
  +++++++++++++++++++++++++++++++++++++++++++++++++++++++++++++++++++++++++++++
   10     6           0.0287806775           0.7831620506      A1        A1 (1)
   11    59           0.0494366114           1.3452385877      B2        B2 (3)
   12     7           0.0905638150           2.4643666910      A1        A1 (1)
   13    40           0.1002419680           2.7277226236      B1        B1 (2)
   14    60           0.1089965791           2.9659477024      B2        B2 (3)
   15     8           0.1415921523           3.8529183418      A1        A1 (1)
   16    61           0.1666081470           4.5336381650      B2        B2 (3)
   17     9           0.2074767268           5.6457287584      A1        A1 (1)
   18    10           0.2190845942           5.9615948887      A1        A1 (1)
   19    85           0.2387091807           6.4956070361      A2        A2 (4)
   20    41           0.2411454736           6.5619019364      B1        B1 (2)
   21    62           0.2944763307           8.0131083381      B2        B2 (3)
   22    11           0.3327021881           9.0532867980      A1        A1 (1)
   23    63           0.3405372201           9.2664888593      B2        B2 (3)
   24    42           0.3643520522           9.9145233844      B1        B1 (2)
   25    12           0.3678989728          10.0110400025      A1        A1 (1)
   26    86           0.3699754953          10.0675450505      A2        A2 (4)
   27    13           0.4017021153          10.9308702708      A1        A1 (1)
   28    64           0.4070110080          11.0753325863      B2        B2 (3)
   29    65           0.5400485247          14.6954674590      B2        B2 (3)
   30    14           0.5530182970          15.0483929070      A1        A1 (1)
   31    43           0.5810151313          15.8102254977      B1        B1 (2)
   32    15           0.6091255967          16.5751501498      A1        A1 (1)
   33    16           0.6876442375          18.7117509893      A1        A1 (1)
   34    87           0.6923977559          18.8411008014      A2        A2 (4)
   35    44           0.7063426530          19.2205607426      B1        B1 (2)
   36    45           0.7867021494          21.4072538083      B1        B1 (2)
   37    66           0.8164126040          22.2157163801      B2        B2 (3)
   38    17           0.8301826870          22.5904193874      A1        A1 (1)
   39    67           0.8515818615          23.1727205293      B2        B2 (3)
   40    68           0.8752291238          23.8161952494      B2        B2 (3)
   41    88           0.8832745746          24.0351230962      A2        A2 (4)
   42    18           0.8947890822          24.3484487777      A1        A1 (1)
   43    46           0.9163516316          24.9351955763      B1        B1 (2)
   44    19           0.9545719524          25.9752233795      A1        A1 (1)
   45    20           0.9896443077          26.9295906862      A1        A1 (1)
   46    69           1.0012730384          27.2460245354      B2        B2 (3)
   47    89           1.0561419630          28.7390838805      A2        A2 (4)
   48    47           1.0753714357          29.2623444344      B1        B1 (2)
   49    70           1.0846276647          29.5142192316      B2        B2 (3)
   50    21           1.1092068050          30.1830516406      A1        A1 (1)
   51    90           1.1272793739          30.6748312415      A2        A2 (4)
   52    48           1.1598118538          31.5600850262      B1        B1 (2)
   53    22           1.1973080772          32.5804091373      A1        A1 (1)
   54    71           1.2725762810          34.6285610887      B2        B2 (3)
   55    72           1.3387001139          36.4278820563      B2        B2 (3)
   56    23           1.5759679476          42.8842680471      A1        A1 (1)
   57    73           1.6133592218          43.9017363464      B2        B2 (3)
   58    49           1.6149864985          43.9460167976      B1        B1 (2)
   59    91           1.6583957643          45.1272429718      A2        A2 (4)
   60    24           1.7002429241          46.2659620796      A1        A1 (1)
   61    25           1.7798224605          48.4314313566      A1        A1 (1)
   62    74           1.8112563415          49.2867907437      B2        B2 (3)
   63    92           2.0500294696          55.7841378772      A2        A2 (4)
   64    50           2.0576593717          55.9917580688      B1        B1 (2)
   65    26           2.0831691272          56.6859138078      A1        A1 (1)
   66    27           2.1951987427          59.7343946272      A1        A1 (1)
   67    75           2.2597483606          61.4908790288      B2        B2 (3)
   68    51           2.3509913397          63.9737267155      B1        B1 (2)
   69    52           2.3707957743          64.5126327778      B1        B1 (2)
   70    28           2.4199978606          65.8514896120      A1        A1 (1)
   71    76           2.4346732875          66.2508282799      B2        B2 (3)
   72    93           2.5526384864          69.4608245361      A2        A2 (4)
   73    77           2.6047985610          70.8801723244      B2        B2 (3)
   74    29           2.6304800882          71.5790022048      A1        A1 (1)
   75    53           2.6908583229          73.2219775001      B1        B1 (2)
   76    30           2.8506489327          77.5701010461      A1        A1 (1)
   77    78           3.0883034545          84.0370093557      B2        B2 (3)
   78    31           3.4424263188          93.6731823858      A1        A1 (1)
   79    79           3.5405172624          96.3423726618      B2        B2 (3)
   80    94           3.8758148463         105.4662837689      A2        A2 (4)
   81    32           3.9454137261         107.3601655726      A1        A1 (1)
   82    80           3.9701159185         108.0323464003      B2        B2 (3)
   83    54           4.0050051149         108.9817296993      B1        B1 (2)
   84    81           4.2260274697         114.9960537367      B2        B2 (3)
   85    55           4.3291215829         117.8013871769      B1        B1 (2)
   86    95           4.3474509945         118.3001558231      A2        A2 (4)
   87    33           4.4122820263         120.0642978875      A1        A1 (1)
   88    56           4.4433887619         120.9107551940      B1        B1 (2)
   89    96           4.5279104925         123.2107084133      A2        A2 (4)
   90    82           4.5642074403         124.1983985762      B2        B2 (3)
   91    34           4.6108964730         125.4688717449      A1        A1 (1)
   92    35           4.7215253716         128.4792371190      A1        A1 (1)
   93    83           4.8752304132         132.6617639378      B2        B2 (3)
   94    36           4.9660056702         135.1318842587      A1        A1 (1)
   95    84           5.5056204395         149.8155486343      B2        B2 (3)
   96    37           7.7227126974         210.1456960963      A1        A1 (1)


  VSCF finished.

 @CHECKOUT-I, Total execution time (CPU/WALL):        5.01/       1.90 seconds.
--executable xvscf finished with status     0 in        5.24 seconds (walltime).
 --invoking executable--
/home/CEISAM/blondel-a/soft/cfour2.1/cfour2.1-serial-mkl/bin/xvtran
 @GETMEM-I,  Allocated  238418 MB of main memory.
  Full RHF integral transformation
  The following   5 MOs will be dropped:
    1  2  3  6  8
  There are  91 active molecular orbitals.
  Transformation of IIII integrals :
  1 pass through the AO integral file was required.
      318692 AO integrals were read.
      266728 MO integrals were written to HF2.
  Transformation of IIJJ integrals :
  1 pass through the AO integral file was required.
      553516 AO integrals were read.
      480525 MO integrals were written to HF2.
  Transformation of IJIJ integrals :
  1 pass through the AO integral file was required.
     1030403 AO integrals were read.
      887262 MO integrals were written to HF2.
  Transformation of IJKL integrals :
  1 pass through the AO integral file was required.
      665794 AO integrals were read.
      594864 MO integrals were written to HF2.
  Summary of active molecular orbitals: 
------------------------------------------------------------------------
 
  Index      Eigenvalue    Symmetry    Index      Eigenvalue    Symmetry
------------------------------------------------------------------------
     1        -0.9822451        1        47         2.0576594        2
     2        -0.5020662        1        48         2.3509913        2
     3        -0.3855043        2        49         2.3707958        2
     4        -0.5891932        3        50         2.6908583        2
     5         0.0287807        1        51         4.0050051        2
     6         0.0905638        1        52         4.3291216        2
     7         0.1415922        1        53         4.4433888        2
     8         0.2074767        1        54         0.0494366        3
     9         0.2190846        1        55         0.1089966        3
    10         0.3327022        1        56         0.1666081        3
    11         0.3678990        1        57         0.2944763        3
    12         0.4017021        1        58         0.3405372        3
    13         0.5530183        1        59         0.4070110        3
    14         0.6091256        1        60         0.5400485        3
    15         0.6876442        1        61         0.8164126        3
    16         0.8301827        1        62         0.8515819        3
    17         0.8947891        1        63         0.8752291        3
    18         0.9545720        1        64         1.0012730        3
    19         0.9896443        1        65         1.0846277        3
    20         1.1092068        1        66         1.2725763        3
    21         1.1973081        1        67         1.3387001        3
    22         1.5759679        1        68         1.6133592        3
    23         1.7002429        1        69         1.8112563        3
    24         1.7798225        1        70         2.2597484        3
    25         2.0831691        1        71         2.4346733        3
    26         2.1951987        1        72         2.6047986        3
    27         2.4199979        1        73         3.0883035        3
    28         2.6304801        1        74         3.5405173        3
    29         2.8506489        1        75         3.9701159        3
    30         3.4424263        1        76         4.2260275        3
    31         3.9454137        1        77         4.5642074        3
    32         4.4122820        1        78         4.8752304        3
    33         4.6108965        1        79         5.5056204        3
    34         4.7215254        1        80         0.2387092        4
    35         4.9660057        1        81         0.3699755        4
    36         7.7227127        1        82         0.6923978        4
    37         0.1002420        2        83         0.8832746        4
    38         0.2411455        2        84         1.0561420        4
    39         0.3643521        2        85         1.1272794        4
    40         0.5810151        2        86         1.6583958        4
    41         0.7063427        2        87         2.0500295        4
    42         0.7867021        2        88         2.5526385        4
    43         0.9163516        2        89         3.8758148        4
    44         1.0753714        2        90         4.3474510        4
    45         1.1598119        2        91         4.5279105        4
    46         1.6149865        2
------------------------------------------------------------------------
 -0.982245138950048      -0.502066207908735      -0.385504349606098     
 -0.589193196076600       2.878067752261138E-002  9.056381495790800E-002
  0.141592152268906       0.207476726760013       0.219084594158982     
  0.332702188085705       0.367898972841796       0.401702115254325     
  0.553018297004284       0.609125596672601       0.687644237495555     
  0.830182686979247       0.894789082194564       0.954571952394841     
  0.989644307690411        1.10920680499598        1.19730807722385     
   1.57596794755748        1.70024292405401        1.77982246050059     
   2.08316912721728        2.19519874271574        2.41999786060075     
   2.63048008815361        2.85064893268697        3.44242631875027     
   3.94541372610213        4.41228202633396        4.61089647301609     
   4.72152537158473        4.96600567021033        7.72271269737352     
  0.100241967984424       0.241145473566305       0.364352052179193     
  0.581015131253386       0.706342653002068       0.786702149377221     
  0.916351631584362        1.07537143570744        1.15981185382266     
   1.61498649853927        2.05765937165927        2.35099133972933     
   2.37079577430693        2.69085832292265        4.00500511485404     
   4.32912158287917        4.44338876185238       4.943661143118624E-002
  0.108996579071772       0.166608146977391       0.294476330742580     
  0.340537220145311       0.407011007986103       0.540048524655377     
  0.816412604002310       0.851581861484735       0.875229123757512     
   1.00127303837963        1.08462766474277        1.27257628102446     
   1.33870011387610        1.61335922180397        1.81125634148028     
   2.25974836063475        2.43467328750106        2.60479856104558     
   3.08830345449270        3.54051726241055        3.97011591848195     
   4.22602746969185        4.56420744033945        4.87523041323252     
   5.50562043950616       0.238709180663234       0.369975495272700     
  0.692397755912024       0.883274574573697        1.05614196301795     
   1.12727937387924        1.65839576431936        2.05002946955077     
   2.55263848643819        3.87581484625733        4.34745099446396     
   4.52791049253612     
 @CHECKOUT-I, Total execution time (CPU/WALL):       11.37/       1.67 seconds.
--executable xvtran finished with status     0 in        4.40 seconds (walltime).
 --invoking executable--
/home/CEISAM/blondel-a/soft/cfour2.1/cfour2.1-serial-mkl/bin/xintprc
 @GETMEM-I,  Allocated  238418 MB of main memory.
  @GMOIAA-I, Processing MO integrals for spin case AA.
  @GMOIAA-I, Generation of integral list completed.
                      TYPE                NUMBER
                      ----               --------
                      PPPP               1862118
                      PPPH                340336
                      PPHH                 15793
                      PHPH                 10160
                      PHHH                   950
                      HHHH                    22

                     TOTAL               2229379

  @FORMT2-I, Second-order MP correlation energies:
            ------------------------------------------------
            E(SCF)                  =   -398.713825005337 a.u.
            E2(AA)                  =     -0.020016225654 a.u.
            E2(AB)                  =     -0.154957737503 a.u.
            E2(TOT)                 =     -0.194990188810 a.u.
            Total MP2 energy        =   -398.908815194148 a.u.
            ------------------------------------------------
   Largest T2 amplitudes for spin case AB:
       _       _                 _       _                 _       _
   i   j   a   b             i   j   a   b             i   j   a   b
-----------------------------------------------------------------------------
[  3   3  40  40]-0.02254 [  4   4  56  56]-0.02129 [  2   2  56  56]-0.02083
[  3   3  82  82]-0.01933 [  3   3  41  41]-0.01890 [  2   2  14  14]-0.01834
[  2   2   9   9]-0.01697 [  3   3  38  38]-0.01577 [  3   3  80  80]-0.01562
[  3   3   9   9]-0.01516 [  4   4  82  82]-0.01490 [  4   4   8   8]-0.01439
[  2   2  56  55]-0.01403 [  2   2  55  56]-0.01403 [  2   2  15  15]-0.01403
-----------------------------------------------------------------------------
   Norm of T2AB vector (    31238 symmetry allowed elements):  0.2456386248.
-----------------------------------------------------------------------------
 @CHECKOUT-I, Total execution time (CPU/WALL):        5.53/       0.58 seconds.
--executable xintprc finished with status     0 in        1.98 seconds (walltime).
  calling xncc 
 --invoking executable--
/home/CEISAM/blondel-a/soft/cfour2.1/cfour2.1-serial-mkl/bin/xncc
 @GETMEM-I,  Allocated       7 MB of main memory.

Running with 20 threads/proc

Following the lowest-energy eigenvector.
Using a partitioned Davidson procedure.
Using discrete restarting.
Using an orthogonal subspace.
Orthogonalizing against previous roots.
Using Modified Gram-Schmidt orthogonalization.

Using DIIS to accelerate the convergence of T1 and T2
Using DIIS to accelerate the convergence of T3
Using immediate high-order contributions
Performing 2 CCSDT sub-iterations
Damping factor for T3: 0.000000
Damping factor for T4: 0.000000

Transposes are coarse-threaded

Memory limit:                232.831 GiB
Minimum memory requirement:  226.878 MiB
Compromise memory amount:      3.962 GiB
Optimal memory requirement:    6.227 GiB

List              Location   Size        Cached Hunks Est. Disk I/O
----------------- ---------- ----------- ------ ----- -------------

           HR_DAV      470:1    7.413 MiB    Yes     -    14.808 GiB
                R        471  948.844 KiB    Yes     -    83.394 MiB
            R_DAV      470:0    7.413 MiB    Yes     -    26.925 GiB
           T_DIIS       70:0    1.196 MiB    Yes     -    21.523 MiB
           Z_DIIS       70:1    1.196 MiB    Yes     -    35.872 MiB
          <AI|bj>         18  244.047 KiB    Yes     -    44.208 MiB
          <Ab|Cd>        233  110.649 MiB    Yes     -   358.959 GiB
          <Ab|Ci>         30    5.122 MiB    Yes     -    19.353 GiB
          <Ab|Ij>         16  244.047 KiB    Yes     -     1.023 GiB
          <Ai|Bj>         25  244.047 KiB    Yes     -    40.277 MiB
          <Aj|bI>         21  244.047 KiB     No     -         0   B
          <Ij|Ka>         10   11.500 KiB    Yes     -    59.428 MiB
          <Ij|Kl>         13      576   B    Yes     -    43.875 KiB
           DD(AI)      448:8      856   B    Yes     -    43.500 KiB
        DD(Ab,Ij)        450  244.047 KiB    Yes     -    14.783 MiB
            F(EA)       92:0   16.664 KiB    Yes     -    14.467 MiB
            F(EM)       93:0      856   B    Yes     -   819.219 KiB
            F(MI)       91:0       48   B    Yes     -    53.625 KiB
           HR(AI)      490:2      856   B    Yes     -     2.987 MiB
        HR(Ab,Ij)        463  244.047 KiB    Yes     -     1.763 GiB
            Q(AI)      190:2      856   B    Yes     -   300.938 KiB
         Q(Ab,Ij)         50  244.047 KiB    Yes     -   364.640 MiB
        QQ(Ab,Ij)          3  244.047 KiB    Yes     -    54.545 MiB
            R(AI)      490:0      856   B    Yes     -     7.022 MiB
         R(Ab,Ij)        446  244.047 KiB    Yes     -     2.863 GiB
            T(AI)       90:0      856   B    Yes     -     2.005 MiB
         T(Ab,Ij)         46  244.047 KiB    Yes     -     1.414 GiB
         W(Mn,Ij)         53      576   B    Yes     -   524.250 KiB
        W~(Ab,Ej)        130    5.122 MiB    Yes     -    11.390 GiB
        W~(EM,bj)         56  244.047 KiB    Yes     -   395.385 MiB
        W~(Em,Bj)         58  244.047 KiB    Yes     -   491.907 MiB
        W~(Ij,Mb)        110   11.500 KiB    Yes     -    16.703 MiB
       W~~(Ab,Ef)         33  110.649 MiB    Yes     -     7.132 GiB
       W~~(Ab,Ej)        169    5.122 MiB    Yes     -    10.454 GiB
       W~~(EM,bj)         76  244.047 KiB    Yes     -   139.660 MiB
       W~~(Em,Bj)         78  244.047 KiB    Yes     -   139.660 MiB
       W~~(Ij,Mb)        165   11.500 KiB    Yes     -    52.970 MiB
       W~~(Mn,Ij)        153      576   B    Yes     -    36.562 KiB
         X(Ab,Ef)        433  110.649 MiB    Yes     -   179.274 GiB
         X(Ab,Ej)        430    5.122 MiB    Yes     -    13.247 GiB
         X(Ab,Ij)        416  244.047 KiB     No     -         0   B
            X(EA)      492:0   16.664 KiB    Yes     -     9.528 MiB
            X(EM)      493:0      856   B    Yes     -   407.812 KiB
         X(EM,bj)        418  244.047 KiB    Yes     -   207.889 MiB
         X(Ef,Am)        469    5.122 MiB    Yes     -     3.827 GiB
         X(Em,Bj)        425  244.047 KiB    Yes     -   263.326 MiB
         X(Ij,Mb)        410   11.500 KiB    Yes     -    38.710 MiB
            X(MI)      491:0       48   B    Yes     -    24.375 KiB
         X(Mn,Ie)        465   11.500 KiB    Yes     -    22.143 MiB
         X(Mn,Ij)        413      576   B    Yes     -   360.000 KiB
            Z(AI)       90:2      856   B    Yes     -   300.938 KiB
         Z(Ab,Ij)         63  244.047 KiB    Yes     -    85.798 MiB
      HR(abc,ijk)    HR3FILE   20.292 MiB    Yes     1    56.520 GiB
    HR(abcd,ijkl)          -    2.034 GiB     No     1         0   B
            HR3_1      HR3_1   20.292 MiB    Yes     1    56.834 GiB
           HR3_10     HR3_10   20.292 MiB    Yes     1    64.998 GiB
           HR3_11     HR3_11   20.292 MiB    Yes     1    60.837 GiB
           HR3_12     HR3_12   20.292 MiB    Yes     1    62.015 GiB
           HR3_13     HR3_13   20.292 MiB    Yes     1    63.192 GiB
           HR3_14     HR3_14   20.292 MiB    Yes     1    64.370 GiB
           HR3_15     HR3_15   20.292 MiB    Yes     1    65.547 GiB
           HR3_16     HR3_16   20.292 MiB    Yes     1    66.725 GiB
           HR3_17     HR3_17   20.292 MiB    Yes     1    67.902 GiB
           HR3_18     HR3_18   20.292 MiB    Yes     1    69.080 GiB
           HR3_19     HR3_19   20.292 MiB    Yes     1    70.257 GiB
            HR3_2      HR3_2   20.292 MiB    Yes     1    55.735 GiB
           HR3_20     HR3_20   20.292 MiB    Yes     1    71.435 GiB
           HR3_21     HR3_21   20.292 MiB    Yes     1     3.218 GiB
           HR3_22     HR3_22   20.292 MiB    Yes     1     3.218 GiB
           HR3_23     HR3_23   20.292 MiB    Yes     1     3.218 GiB
           HR3_24     HR3_24   20.292 MiB    Yes     1     3.218 GiB
           HR3_25     HR3_25   20.292 MiB    Yes     1     3.218 GiB
           HR3_26     HR3_26   20.292 MiB    Yes     1     3.218 GiB
           HR3_27     HR3_27   20.292 MiB    Yes     1     3.218 GiB
           HR3_28     HR3_28   20.292 MiB    Yes     1     3.218 GiB
           HR3_29     HR3_29   20.292 MiB    Yes     1     3.218 GiB
            HR3_3      HR3_3   20.292 MiB    Yes     1    56.991 GiB
           HR3_30     HR3_30   20.292 MiB    Yes     1     3.218 GiB
           HR3_31     HR3_31   20.292 MiB     No     1         0   B
            HR3_4      HR3_4   20.292 MiB    Yes     1    58.247 GiB
            HR3_5      HR3_5   20.292 MiB    Yes     1    59.503 GiB
            HR3_6      HR3_6   20.292 MiB    Yes     1    60.759 GiB
            HR3_7      HR3_7   20.292 MiB    Yes     1    62.015 GiB
            HR3_8      HR3_8   20.292 MiB    Yes     1    63.271 GiB
            HR3_9      HR3_9   20.292 MiB    Yes     1    64.527 GiB
       Q(abc,ijk)     Q3FILE   20.292 MiB    Yes     1     1.189 GiB
       R(abc,ijk)     R3FILE   20.292 MiB    Yes     1   135.412 GiB
             R3_1       R3_1   20.292 MiB    Yes     1   107.859 GiB
            R3_10      R3_10   20.292 MiB    Yes     1   116.023 GiB
            R3_11      R3_11   20.292 MiB    Yes     1   110.292 GiB
            R3_12      R3_12   20.292 MiB    Yes     1   111.470 GiB
            R3_13      R3_13   20.292 MiB    Yes     1   112.647 GiB
            R3_14      R3_14   20.292 MiB    Yes     1   113.825 GiB
            R3_15      R3_15   20.292 MiB    Yes     1   115.002 GiB
            R3_16      R3_16   20.292 MiB    Yes     1   116.180 GiB
            R3_17      R3_17   20.292 MiB    Yes     1   117.357 GiB
            R3_18      R3_18   20.292 MiB    Yes     1   118.535 GiB
            R3_19      R3_19   20.292 MiB    Yes     1   119.712 GiB
           R3_1_1     R3_1_1   20.292 MiB    Yes     1     1.486 GiB
             R3_2       R3_2   20.292 MiB    Yes     1   106.760 GiB
            R3_20      R3_20   20.292 MiB    Yes     1   118.535 GiB
            R3_21      R3_21   20.292 MiB    Yes     1     3.218 GiB
            R3_22      R3_22   20.292 MiB    Yes     1     3.218 GiB
            R3_23      R3_23   20.292 MiB    Yes     1     3.218 GiB
            R3_24      R3_24   20.292 MiB    Yes     1     3.218 GiB
            R3_25      R3_25   20.292 MiB    Yes     1     3.218 GiB
            R3_26      R3_26   20.292 MiB    Yes     1     3.218 GiB
            R3_27      R3_27   20.292 MiB    Yes     1     3.218 GiB
            R3_28      R3_28   20.292 MiB    Yes     1     3.218 GiB
            R3_29      R3_29   20.292 MiB    Yes     1     3.218 GiB
           R3_2_1     R3_2_1   19.920 MiB    Yes     1     1.459 GiB
             R3_3       R3_3   20.292 MiB    Yes     1   108.016 GiB
            R3_30      R3_30   20.292 MiB    Yes     1     3.218 GiB
            R3_31      R3_31   20.292 MiB     No     1         0   B
           R3_3_1     R3_3_1   20.272 MiB    Yes     1     1.485 GiB
             R3_4       R3_4   20.292 MiB    Yes     1   109.272 GiB
           R3_4_1     R3_4_1   19.900 MiB    Yes     1     1.457 GiB
             R3_5       R3_5   20.292 MiB    Yes     1   110.528 GiB
             R3_6       R3_6   20.292 MiB    Yes     1   111.784 GiB
             R3_7       R3_7   20.292 MiB    Yes     1   113.040 GiB
             R3_8       R3_8   20.292 MiB    Yes     1   114.296 GiB
             R3_9       R3_9   20.292 MiB    Yes     1   115.552 GiB
       T(abc,ijk)     T3FILE   20.292 MiB    Yes     1     7.154 GiB
     T(abcd,ijkl)          -    2.034 GiB     No     1         0   B
             T3_1       T3_1   20.292 MiB    Yes     1   608.764 MiB
             T3_2       T3_2   20.292 MiB    Yes     1   304.382 MiB
             T3_3       T3_3   20.292 MiB    Yes     1   304.382 MiB
             T3_4       T3_4   20.292 MiB    Yes     1   304.382 MiB
             T3_5       T3_5   20.292 MiB    Yes     1   304.382 MiB
       W(abc,ije)    WABCIJE    1.072 GiB    Yes     1   161.945 GiB
       W(abm,ijk)    WABMIJK    2.339 MiB    Yes     1   353.224 MiB
       X(abc,ije)    XABCIJE    1.072 GiB    Yes     1   128.053 GiB
       X(abm,ijk)    XABMIJK    2.339 MiB    Yes     1   277.185 MiB
       X(mnd,jkl)    XMNDJKL  111.250 KiB     No     1         0   B
       Z(abc,ijk)     Z3FILE   20.292 MiB    Yes     1     3.270 GiB
     Z(abcd,ijkl)          -    2.034 GiB     No     1         0   B
             Z3_1       Z3_1   20.292 MiB    Yes     1   608.764 MiB
             Z3_2       Z3_2   20.292 MiB    Yes     1   608.764 MiB
             Z3_3       Z3_3   20.292 MiB    Yes     1   608.764 MiB
             Z3_4       Z3_4   20.292 MiB    Yes     1   608.764 MiB
             Z3_5       Z3_5   20.292 MiB    Yes     1   608.764 MiB

Simulation and memory analysis took 5.680 seconds

MP2 correlation energy:  -0.194990188810232

Non-iterative calculation of MP2 took 0.109 cpu seconds and 0.006 walltime seconds at 0.252 Gflops/sec

Total MP2 energy: -398.908815194147508

Beginning iterative solution of CC4 equations:

It.  Correlation Energy T1 Residual T2 Residual T3 Residual CPU Time (s) Walltime (s)
-------------------------------------------------------------------------------------
  1  -0.226988960401121 1.03624e-03 1.23832e-03 8.89751e-05     1639.518      139.557
  2  -0.227971300020666 1.56626e-04 1.66964e-04 1.15364e-05     1666.514      139.505
  3  -0.228059792765282 1.40560e-05 1.13609e-05 1.46191e-06     1600.781      136.394
  4  -0.228061747125279 1.19042e-06 1.29500e-06 1.49119e-07     1592.141      135.679
  5  -0.228061688947741 8.54186e-08 5.96153e-08 1.46803e-08     1614.611      137.722

   A    I                     A    I                     A    I                  
-------------------------- -------------------------- -------------------------- 
  20    9  0.0098359406941   21    7 -0.0062939082457   27    8  0.0045092895069 
  17    8 -0.0098310443740   25    8  0.0055425755288   33    8  0.0040130647391 
  16    7  0.0095012762184   35    9 -0.0052472543020   24    9 -0.0039896343385 
  38    8 -0.0071877879635   27    6  0.0047183683689   39    7  0.0038558504771 
  14    7  0.0070392816085   37    7  0.0047087384494   15    6 -0.0037692632461 

   A    B    I    J                     A    B    I    J                  
------------------------------------ ------------------------------------ 
  16   16    8    8 -0.0306618764667   18   18    8    8 -0.0206366388670 
  16   16    7    7 -0.0289551273943   18   18    9    9 -0.0189240035057 
  31   31    9    9 -0.0252547329345   19   19    9    9 -0.0187262921519 
  34   34    9    9 -0.0232407623879   16   21    8    8  0.0187131920697 
  35   35    9    9 -0.0225331191594   21   16    8    8  0.0187131920697 
  32   32    8    8 -0.0217415770710   20   20    9    9 -0.0187094558751 
  16   14    8    8 -0.0206678407548   28   16    7    7  0.0186063010881 
  14   16    8    8 -0.0206678407548 

It.  Correlation Energy T1 Residual T2 Residual T3 Residual CPU Time (s) Walltime (s)
-------------------------------------------------------------------------------------

CC4 iterations converged in 5 cycles and 688.858 seconds (137.772 s/it.) at 2.767 Gflops/sec

Total CC4 energy: -398.941886694285017

             _
Formation of H took 1.241 seconds at 19.557 Gflops/sec

Searching for 1 roots in irrep 1

EOMEE-CCSD guess vector:

   A    I                  
-------------------------- 
  13    9  1.0000000000000 

Beginning iterative solution of EOMEE-CC4 equations:

It.  Correlation Energy R1 Residual R2 Residual R3 Residual CPU Time (s) Walltime (s)
-------------------------------------------------------------------------------------
  1   0.393302908980640 1.17728e-02 5.93223e-02 1.18139e-03     3711.052      291.843
  2   0.334875451156937 2.11696e-02 4.72414e-02 2.69625e-03     3677.932      290.926
  3   0.319659335047243 5.85468e-03 7.07524e-03 3.40734e-03     3692.291      291.872
  4   0.319610467220026 5.93505e-03 4.42686e-03 1.03714e-03     3784.723      297.717
  5   0.318332601483213 4.30100e-03 3.96309e-03 3.96195e-04     3696.532      292.555
  6   0.317513402170289 3.46576e-03 1.90047e-03 3.26953e-04     3730.977      293.204
  7   0.317636709885661 1.64998e-03 1.60843e-03 1.82374e-04     3733.007      293.604
  8   0.317727990442283 1.64319e-03 1.27910e-03 3.00954e-04     3747.342      295.293
  9   0.317551774879396 9.09118e-04 8.99162e-04 1.14112e-04     3732.630      293.977
 10   0.317472554380676 8.36543e-04 6.69975e-04 9.46284e-05     3772.383      295.615
Locking on root: 0.317490462598220
 11   0.317490462598220 6.19481e-04 5.16771e-04 7.50437e-05     3768.242      295.957
 12   0.317478681099341 3.25719e-04 3.54645e-04 5.76093e-05     3823.572      299.145
 13   0.317460205362359 2.25459e-04 2.20546e-04 3.29183e-05     3770.302      295.765
 14   0.317465702019911 9.65182e-05 1.10732e-04 1.66091e-05     3788.007      295.786
 15   0.317469347822292 4.47687e-05 4.53527e-05 7.15535e-06     3832.678      298.675
 16   0.317467082709432 1.85402e-05 1.95447e-05 4.13741e-06     3872.721      299.875
 17   0.317466061534978 1.09656e-05 1.12718e-05 1.30012e-06     3887.729      301.704
 18   0.317466306649228 7.47401e-06 4.43214e-06 5.94096e-07     3928.880      304.254

EOMEE-CC4 iterations converged in 18 cycles and 5327.768 seconds (295.987 s/it.) at 2.696 Gflops/sec

EOMEE-CC4 excitation energy:   0.317466306649237 (  8.638697386814361 eV)
Total EOMEE-CC4 energy:      -398.624420387635780

Converged root:

   A    I                     A    I                     A    I                  
-------------------------- -------------------------- -------------------------- 
  13    9  0.6584198632237   16    7 -0.0412657288968   32    8 -0.0213717363247 
  10    8  0.0987131174108   24    9 -0.0351272248410   28    7  0.0211007118501 
  20    9 -0.0797362145760   12    8 -0.0348168723895   11    7  0.0207844563556 
  15    8 -0.0683741517624   18    8  0.0245445180959   22    8  0.0171143629972 
  31    9 -0.0499240728416   27    8  0.0244367126801   25    8 -0.0161978314952 

   A    B    I    J                     A    B    I    J                  
------------------------------------ ------------------------------------ 
  13   13    9    9  0.1048016991881   13   28    9    7 -0.0257926814565 
  31   13    9    9 -0.0518324169065   13   12    9    8  0.0247807666078 
  13   31    9    9 -0.0518324169065   12   13    8    9  0.0247807666078 
  16   13    7    9  0.0332416922652   13   15    9    6 -0.0244892086416 
  13   16    9    7  0.0332416922652   15   13    6    9 -0.0244892086416 
  24   13    9    9 -0.0326457462322   13   22    9    8 -0.0210027662494 
  13   24    9    9 -0.0326457462322   22   13    8    9 -0.0210027662494 
  28   13    7    9 -0.0257926814565 

Searching for 1 roots in irrep 2

EOMEE-CCSD guess vector:

   A    I                  
-------------------------- 
  10    9  1.0000000000000 

Beginning iterative solution of EOMEE-CC4 equations:

It.  Correlation Energy R1 Residual R2 Residual R3 Residual CPU Time (s) Walltime (s)
-------------------------------------------------------------------------------------
  1   0.334223608987753 3.10276e-02 4.38101e-02 1.19212e-03     3629.605      287.808
  2   0.272104839186629 1.07375e-01 2.34456e-02 2.10294e-03     3642.272      288.782
  3   0.246265957671374 2.28733e-02 9.54182e-03 1.83870e-03     3629.891      287.397
  4   0.237151571679046 2.22959e-02 4.27839e-03 2.29377e-03     3617.556      286.052
  5   0.230804122561809 5.04431e-03 4.88018e-03 9.04073e-04     3711.369      291.132
  6   0.229318764632521 3.80408e-03 1.44968e-03 3.44945e-04     3646.010      288.091
Locking on root: 0.229296710994872
  7   0.229296710994872 2.18424e-03 6.77187e-04 1.84587e-04     3659.463      289.103
  8   0.229301133929577 8.70635e-04 4.54594e-04 8.82079e-05     3622.500      286.398
  9   0.229232539622198 3.65288e-04 1.66288e-04 4.14352e-05     3655.758      288.596
 10   0.229231148209357 1.65979e-04 9.56613e-05 1.68500e-05     3691.734      290.518
 11   0.229237318455697 9.81248e-05 4.93785e-05 8.75205e-06     3693.702      291.027
 12   0.229237243871957 5.46994e-05 2.65863e-05 4.42810e-06     3713.356      292.678
 13   0.229235933923096 2.09105e-05 1.30337e-05 2.29477e-06     3718.981      292.529
 14   0.229235719486941 7.98776e-06 4.27706e-06 9.44440e-07     3755.938      294.255

EOMEE-CC4 iterations converged in 14 cycles and 4054.367 seconds (289.598 s/it.) at 2.589 Gflops/sec

EOMEE-CC4 excitation energy:   0.229235719486951 (  6.237821051934274 eV)
Total EOMEE-CC4 energy:      -398.712650974798066

Converged root:

   A    I                     A    I                     A    I                  
-------------------------- -------------------------- -------------------------- 
  10    9  0.5607589881037   25    9 -0.0285593864797   30    9  0.0098446783095 
  15    9 -0.3577735930583   45    9 -0.0181338303787   19    7 -0.0084659046092 
  27    9  0.1043071268257   12    9 -0.0172323635607   50    9 -0.0084538063449 
  18    9  0.0620366325877   32    9 -0.0142349400045   20    8  0.0074062889467 
  17    9  0.0547284583755   44    9 -0.0141869485949   34    7  0.0067616696401 

   A    B    I    J                     A    B    I    J                  
------------------------------------ ------------------------------------ 
  13   10    9    9  0.0431442785817   16   15    7    9 -0.0243425798901 
  10   13    9    9  0.0431442785817   15   16    9    7 -0.0243425798901 
  31   10    9    9 -0.0401908333444   24   10    9    9 -0.0240606048668 
  10   31    9    9 -0.0401908333444   10   24    9    9 -0.0240606048668 
  16   10    7    9  0.0366762898495   10   15    9    6 -0.0230655091955 
  10   16    9    7  0.0366762898495   15   10    6    9 -0.0230655091955 
  28   10    7    9 -0.0253786403301   13   15    9    9 -0.0223435129098 
  10   28    9    7 -0.0253786403301 

Searching for 1 roots in irrep 3

EOMEE-CCSD guess vector:

   A    I                  
-------------------------- 
  11    8  1.0000000000000 

Beginning iterative solution of EOMEE-CC4 equations:

It.  Correlation Energy R1 Residual R2 Residual R3 Residual CPU Time (s) Walltime (s)
-------------------------------------------------------------------------------------
  1   0.491610061099248 2.01790e-02 4.07205e-02 1.19751e-03     3637.223      288.903
  2   0.425622756029775 7.24140e-02 1.77446e-02 2.72592e-03     3632.344      288.133
  3   0.406612742182318 2.17266e-02 5.68135e-03 2.11351e-03     3628.389      288.417
  4   0.401266080651543 3.50898e-02 3.46225e-03 2.77520e-03     3631.440      287.753
  5   0.390475167179122 2.11332e-02 7.24334e-03 1.47014e-03     3637.638      288.264
  6   0.380156176763904 3.29290e-02 4.99401e-03 2.09253e-03     3635.960      288.581
  7   0.364697153168032 1.74471e-02 9.00462e-03 1.68059e-03     3656.650      289.037
  8   0.355973407571367 5.23224e-03 6.42699e-03 1.48223e-03     3664.640      290.880
  9   0.354037157424743 2.57701e-03 3.54624e-03 4.47373e-04     3700.945      291.506
 10   0.353646555973268 2.49108e-03 1.87937e-03 2.30913e-04     3707.870      292.249
 11   0.353595871992655 1.47108e-03 1.06721e-03 1.00848e-04     3727.048      292.820
 12   0.353550697589644 1.12864e-03 4.96293e-04 7.39434e-05     3741.296      294.271
 13   0.353507484535380 6.42001e-04 2.98783e-04 8.90546e-05     3738.419      293.902
Locking on root: 0.353507111750494
 14   0.353507111750494 3.41081e-04 1.88393e-04 2.70600e-05     3776.891      294.793
 15   0.353511634792314 2.51910e-04 7.51298e-05 1.57202e-05     3764.468      295.086
 16   0.353507816388959 1.79587e-04 4.69545e-05 9.47720e-06     3788.764      296.136
 17   0.353503346436151 1.13988e-04 3.66056e-05 8.59678e-06     3846.127      299.690
 18   0.353503010332821 4.46297e-05 2.23020e-05 4.85751e-06     3832.906      299.191
 19   0.353504480691183 2.36584e-05 1.28711e-05 2.51100e-06     3829.133      298.309
Compacting subspace
 20   0.353504470291506 8.59025e-06 6.61699e-06 1.44186e-06     4086.601      311.542

EOMEE-CC4 iterations converged in 20 cycles and 5869.464 seconds (293.473 s/it.) at 2.623 Gflops/sec

EOMEE-CC4 excitation energy:   0.353504470291512 (  9.619345674716230 eV)
Total EOMEE-CC4 energy:      -398.588382223993506

Converged root:

   A    I                     A    I                     A    I                  
-------------------------- -------------------------- -------------------------- 
  19    9  0.3833584981761   26    9 -0.0809932607424   15    7  0.0300162116934 
  16    8 -0.3828206783236   28    8  0.0755876184228   29    8 -0.0212276823657 
  14    8 -0.3334168265835   34    9 -0.0701007050545   10    7 -0.0197916923644 
  11    8  0.1506907074944   17    7 -0.0459060451748   30    7 -0.0189423983912 
  21    8  0.0981253367759   23    8  0.0331631036627   25    7  0.0176377094010 

   A    B    I    J                     A    B    I    J                  
------------------------------------ ------------------------------------ 
  19   31    9    9 -0.0276884676998   14   32    8    8 -0.0213495875716 
  31   19    9    9 -0.0276884676998   32   14    8    8 -0.0213495875716 
  19   13    9    9  0.0260461277741   16   16    7    6 -0.0210326064480 
  13   19    9    9  0.0260461277741   16   16    6    7 -0.0210326064480 
  16   18    8    8  0.0250389860225   14   18    8    8  0.0209970465712 
  18   16    8    8  0.0250389860225   18   14    8    8  0.0209970465712 
  16   19    7    9  0.0215835124296   16   32    8    8 -0.0193892194182 
  19   16    9    7  0.0215835124296 

Searching for 1 roots in irrep 4

EOMEE-CCSD guess vector:

   A    I                  
-------------------------- 
  11    9  1.0000000000000 

Beginning iterative solution of EOMEE-CC4 equations:

It.  Correlation Energy R1 Residual R2 Residual R3 Residual CPU Time (s) Walltime (s)
-------------------------------------------------------------------------------------
  1   0.373779919050509 2.14652e-02 4.38948e-02 1.20021e-03     3559.626      284.149
  2   0.312911352991433 7.67593e-02 2.27056e-02 2.18353e-03     3551.703      283.731
  3   0.295100516722396 3.04657e-02 8.89298e-03 1.87868e-03     3575.939      284.945
  4   0.287313113811398 4.30407e-02 5.75329e-03 3.42151e-03     3566.793      284.611
  5   0.267199677918172 5.16023e-02 1.26525e-02 2.22224e-03     3571.381      284.593
  6   0.244945336016713 3.73419e-02 1.43498e-02 3.28792e-03     3564.921      284.044
  7   0.230092112648249 9.80321e-03 4.25285e-03 1.38010e-03     3594.662      285.951
  8   0.227685925163694 3.24173e-03 2.27168e-03 6.15030e-04     3583.301      284.260
  9   0.227247740361586 1.14840e-03 9.60805e-04 1.81222e-04     3613.421      287.073
 10   0.227153899995303 3.94203e-04 3.58695e-04 6.12454e-05     3661.728      289.334
Locking on root: 0.227158479212509
 11   0.227158479212509 1.48535e-04 1.11331e-04 1.73095e-05     3643.456      287.990
 12   0.227157604383466 3.98530e-05 2.79767e-05 6.88842e-06     3668.365      289.726
 13   0.227155058056629 1.33804e-05 1.22220e-05 3.52956e-06     3691.915      290.486
 14   0.227155508448686 3.41290e-06 5.28642e-06 1.05625e-06     3705.951      291.898

EOMEE-CC4 iterations converged in 14 cycles and 4012.792 seconds (286.628 s/it.) at 2.585 Gflops/sec

EOMEE-CC4 excitation energy:   0.227155508448675 (  6.181215631818833 eV)
Total EOMEE-CC4 energy:      -398.714731185836342

Converged root:

   A    I                     A    I                     A    I                  
-------------------------- -------------------------- -------------------------- 
  16    9  0.4775202569929   23    9 -0.0495890298661   46    9  0.0068984172747 
  14    9  0.4220397063951   29    9  0.0410501932027   67    9 -0.0067789035736 
  21    9 -0.1506904956145   37    9  0.0325856452270   34    6  0.0053246282788 
  11    9 -0.1468758845192   40    9 -0.0218978690506   55    9 -0.0052009410190 
  28    9 -0.1022659316371   62    9 -0.0072611380568   13    7 -0.0036755835240 

   A    B    I    J                     A    B    I    J                  
------------------------------------ ------------------------------------ 
  16   16    7    9  0.0233203002469   14   31    9    9 -0.0202296598608 
  16   16    9    7  0.0233203002469   31   14    9    9 -0.0202296598608 
  14   13    9    9  0.0227224239616   16   24    9    9 -0.0199001483210 
  13   14    9    9  0.0227224239616   24   16    9    9 -0.0199001483210 
  38   16    9    8  0.0216606339381   16   14    7    9  0.0190937027854 
  16   38    8    9  0.0216606339381   14   16    9    7  0.0190937027854 
  14   24    9    9 -0.0214986877421   16   13    9    9  0.0189911705352 
  24   14    9    9 -0.0214986877421 

 @CHECKOUT-I, Total execution time (CPU/WALL):   252765.38/   19962.99 seconds.
--executable xncc finished with status     0 in    19964.66 seconds (walltime).
  The final electronic energy is      -398.714731185836342 a.u. 
  This computation required                        19999.80 seconds (walltime).
