 --invoking executable--
/home/CEISAM/blondel-a/soft/cfour2.1/cfour2.1-serial-mkl/bin/xjoda


   *************************************************************************
         <<<     CCCCCC     CCCCCC   |||     CCCCCC     CCCCCC   >>>
       <<<      CCC        CCC       |||    CCC        CCC         >>>
      <<<      CCC        CCC        |||   CCC        CCC            >>>
    <<<        CCC        CCC        |||   CCC        CCC              >>>
      <<<      CCC        CCC        |||   CCC        CCC            >>>
       <<<      CCC        CCC       |||    CCC        CCC         >>>
         <<<     CCCCCC     CCCCCC   |||     CCCCCC     CCCCCC   >>>
   *************************************************************************

     ****************************************************************
     * CFOUR Coupled-Cluster techniques for Computational Chemistry *
     ****************************************************************
 

   Department of Chemistry                Institut fuer Physikalische Chemie
   University of Florida                  Universitaet Mainz
   Gainesville, FL 32611, USA             D-55099 Mainz, Germany

   Department of Chemistry                Fakultaet fuer Chemie und Biowiss.
   Johns Hopkins University               Karlsruher Institut fuer Technologie
   Baltimore, MD 21218, USA               D-76131 Karlsruhe, Germany

   Department of Chemistry                Department of Physical Chemistry
   Southern Methodist University          Eotvos Lorand University
   Dallas, TX 75275, USA                  H-1053 Budapest, Hungary

 
                       Version 2.1
 
                     cribbar055                                        
                     Tue Mar 16 14:39:19 CET 2021                      
                     integer*8 version is running
 
********************************************************************************
*                          Input from ZMAT file                                *
********************************************************************************
Ketene -GS                                                                      
Cl    0.0000000000            0.0000000000           -0.0248978291              
H     0.0000000000            0.0000000000            2.3848313950              
                                                                                
*CFOUR(COORD=CARTESIAN,UNITS=BOHR                                               
       MEMORY=250,MEM_UNIT=GB,CC_PROG=NCC                                       
       FROZEN_CORE=1                                                            
       CALC=CC4,BASIS=AUG-PVTZ                                                  
       SCF_CONV=8,CC_CONV=7,ESTATE_CONV=5,ESTATE_MAXCYC=120                     
       EXCITE=EOMEE,ESTATE_SYM=0/1/0/0)                                         
                                                                                
********************************************************************************
    -------------------------------------------------------------------
                    CFOUR Control Parameters 
    -------------------------------------------------------------------
        External           Internal           Value            Units
          Name               Name
    -------------------------------------------------------------------
       ABCDTYPE             IABCDT         STANDARD    [  0]    ***   
       ANHARMONIC           IANHAR         OFF         [  0]    ***   
       ANH_ALGORIT          IANALG         STANDARD    [  0]    ***   
       ANH_DERIVAT          IANDER         SECOND      [  1]    ***   
       ANH_MODE             ANHMOD         VIBRATION   [  0]    ***   
       ANH_STEPSIZ          ICUBST             50000          x 10-6  
       ANH_SYMMETR          IANHSM         ABELIAN     [  0]    ***   
       AO_LADDERS           IAOLAD         SINGLEPASS  [  1]    ***   
       AV_SCF               IAVSCF         OFF         [  0]    ***   
       BASIS                IBASIS         AUG-PVTZ    [ 34]    ***   
       BOTHVECTORS          BOTHVC         OFF         [  0]    ***   
       BOX_POTENT           IPIAB          OFF         [  0]    ***   
       BREIT                IBREIT         OFF         [  0]    ***   
       BRUCK_CONV           IBRTOL          10D-  4             ***   
       BRUECKNER            IBRKNR         OFF         [  0]    ***   
       BUFFERSIZE           IBUFFS              4096            ***   
       CACHE_RECS           ICHREC             10               ***   
       CALCLEVEL            ICLLVL         CC4         [ 52]    ***   
       CCORBOPT             ICCORB         OFF         [  0]  x 0.01  
       CC_CONV              ICCCNV          10D-  7             ***   
       CC_EXPORDER          ICCEOR              5               ***   
       CC_EXTRAPOL          ICCEXT         DIIS        [  1]    ***   
       CC_GUESS             ICCGES         MP2         [  0]    ***   
       CC_MAXCYC            ICCCYC            100              cycles 
       CC_PROGRAM           ICCPRO         NCC         [  5]    ***   
       CHARGE               ICHRGE              0               ***   
       CHOLESKY             ICHOLE         OFF         [  0]    ***   
       CIS_CONV             ICISTL              5               ***   
       COMM_SIZE            IPSIZE            ***               ***   
       CONSTANT             ICONST         OLD         [  1]    ***   
       CONTINUUM            ICONTU         NONE        [  0]    ***   
       CONTRACTION          ICNTYP         GENERAL     [  1]    ***   
       COORDINATES          ICOORD         CARTESIAN   [  1]    ***   
       CPHF_CONVER          ICPHFT          10D- 16             ***   
       CPHF_MAXCYC          ICPHFC             64              cycles 
       CUBIC                ICUBIC         OFF         [  0]    ***   
       CURVILINEAR          ICURVY         OFF         [  0]    ***   
       DBOC                 IDBOC          OFF         [  0]    ***   
       DCT                  IDCT           OFF         [  0]    ***   
       DERIV_LEV            IDRLVL         ZERO        [  0]    ***   
       DEVMEM_SIZE          IDVMEM         *********           MByte  
       DIAG_MRCC            IEOMST          10D-  0             ***   
       DIFF_TYPE            IDIFTY         RELAXED     [  0]    ***   
       DIRECT               IDIRCT         OFF         [  0]    ***   
       DROPMO               IDRPMO      NONE         
       ECP                  IECP           OFF         [  0]    ***   
       EIGENVECTOR          IVEC                1               ***   
       EL_ANHARM            IELANH         OFF         [  0]    ***   
       EOMFOLLOW            IEOMSR         ENERGY      [  0]    ***   
       EOMIP                IEOMIP         OFF         [  0]    ***   
       EOMLEVEL             HBARFM         SAME        [  0]    ***   
       EOM_MRCC             IMRCCE         NEW         [  1]    ***   
       EOM_NONIT            EOMNON         OFF         [  0]    ***   
       EOM_NSING            IEOMSI          10D-  0             ***   
       EOM_NSTATES          IMRCCD         DAVIDSON    [  0]    ***   
       EOM_NTRIP            IEOMTR          10D-  0             ***   
       EOM_ORDER            IEXORD         ENERGY      [  0]    ***   
       EOM_PROPSTA          IEOMST              0               ***   
       ESTATE_CONV          IEXTOL          10D-  5             ***   
       ESTATE_DIAG          IEXDIG         ITERATIVE   [  0]    ***   
       ESTATE_LOCK          IESLOC         ON          [  1]    ***   
       ESTATE_MAXC          IEXMXC            120               ***   
       ESTATE_PROP          IEXPRP         OFF         [  0]    ***   
       ESTATE_SYM           IEXSYM   0,  1,  0,  0,
       EVAL_HESS            IRECAL              0            # of cyc.
       EXCITATION           IEXCIT              0               ***   
       EXCITE               IEXCIT         EOMEE       [  3]    ***   
       EXTERN_POT           IEXPOT         OFF         [  0]    ***   
       FCGRADNEW            IFCGNW         OFF         [  0]    ***   
       FC_FIELD             IFINFC              0             x 10-6  
       FD_CALTYPE           IFDCAL         GRADONLY    [  0]    ***   
       FD_PROJECT           IFDPRJ         OFF         [  1]    ***   
       FD_STEPSIZE          IDISFD              0            10-4 bohr
       FD_USEGROUP          IFDGRP         FULL        [  0]    ***   
       FILE_RECSIZ          IFLREC              4096           words  
       FINITE_PERT          IFIPER              0             x 10-6  
       FIXGEOM              IFIXGM         OFF         [  0]    ***   
       FOCK                 IFOCK          AO          [  1]    ***   
       FREQ_ALGORI          IVIALG         STANDARD    [  0]    ***   
       FROZEN_CORE          IFROCO         ON          [  1]    ***   
       GAMMA_ABCD           IGABCD         STORE       [  0]    ***   
       GAMMA_ABCI           IGABCI         STORE       [  0]    ***   
       GENBAS_1             IGNBS1              0               ***   
       GENBAS_2             IGNBS2              0               ***   
       GENBAS_3             IGNBS3              0               ***   
       GENBAS_4             IGNBS4              0               ***   
       GEO_CONV             ICONTL              5              H/bohr 
       GEO_MAXCYC           IOPTCY             50               ***   
       GEO_MAXSTEP          IMXSTP            300            millibohr
       GEO_METHOD           INR            SINGLE_POINT[  5]    ***   
       GIAO                 IGIAO          OFF         [  1]    ***   
       GIMIC                IGIMIC         OFF         [  0]    ***   
       GRID                 IGRID          OFF         [  0]    ***   
       GRID_ALGO            IGALGO         SERIAL      [  0]    ***   
       GUESS                IGUESS         MOREAD      [  0]    ***   
       HBAR                 IHBAR          ON          [  1]    ***   
       HESS_TYPE            IHESTP         SCF         [  0]    ***   
       HF2_FILE             IHF2Fl         USE         [  1]    ***   
       HFSTABILITY          ISTABL         OFF         [  0]    ***   
       INCORE               INCORE         OFF         [  0]    ***   
       INPUT_MRCC           IMRCC          ON          [  1]    ***   
       INTEGRALS            INTTYP         VMOL        [  1]    ***   
       JODA_PRINT           IJPRNT              0               ***   
       KEYWORD_OUT          IDMPKW         NO          [  0]    ***   
       LINDEP_TOL           ILINDP              8               ***   
       LINEQ_CONV           IZTACN          10D-  7           cycles  
       LINEQ_EXPOR          ILMAXD              5               ***   
       LINEQ_MAXCY          ILMAXC            100               ***   
       LINEQ_TYPE           ILTYPE         DIIS        [  1]    ***   
       LOCK_ORBOCC          ILOCOC         OFF         [  0]    ***   
       MEMORY_SIZE          IMEMSZ         *********           words  
       MEM_UNIT             IMEMU          GB          [  3]    ***   
       MRCC                 IMRCCC         OFF         [  0]    ***   
       MULTIPLICTY          IMULTP              1               ***   
       NACOUPLING           IVCOUP         OFF         [  0]    ***   
       NEGEVAL              IDIE           ABORT       [  0]    ***   
       NEWNORM              INEWNO         OFF         [  0]    ***   
       NON-HF               INONHF         OFF         [  0]    ***   
       NTOP_TAMP            ITOPT2             15               ***   
       NUC_MODEL            INUCMO         POINT       [  0]    ***   
       OCCUPATION           IOCCU   ESTIMATED BY SCF 
       OPEN-SHELL           IOPEN          SPIN-ORBITAL[  0]    ***   
       OPTVIB               IOPTVB         OFF         [  0]    ***   
       ORBITALS             IORBTP         STANDARD    [  0]    ***   
       PARALLEL             IPARAL         ON          [  1]    ***   
       PARA_INT             IPINTS         ON          [  1]    ***   
       PARA_PRINT           IPPRIN              0               ***   
       PERT_ORB             IPTORB         STANDARD    [  0]    ***   
       POINTS               IGRDFD              0               ***   
       PRINT                IPRNT               0               ***   
       PROPS                IPROPS         OFF         [  0]    ***   
       PROP_INTEGR          IINTYP         INTERNAL    [  0]    ***   
       PSI                  IPSI           OFF         [  0]    ***   
       QC_ALG               IQCALG         FLM         [  0]    ***   
       QC_LINALG            IQCLIN         TRIDIAG     [  2]    ***   
       QC_MAXCYC            IQCMAX          10D-100           cycles  
       QC_MAXSCFCY          IQCMSC          10D- 15           cycles  
       QC_RTRUST            IQCRTR          10D-  0           x 10-3  
       QC_SKIPSCF           IQCSKI         OFF         [  0]    ***   
       QC_START             IQCSTA          10D-  1             ***   
       QRHFGUESS            IQGUES         OFF         [  0]    ***   
       QUARTIC              IQUART         OFF         [  0]    ***   
       RAMAN_INT            IRAMIN         OFF         [  0]    ***   
       RAMAN_ORB            IRAMRE         UNRELAXED   [  0]    ***   
       RDO                  IRDOFM         OFF         [  0]    ***   
       REDUCE_REPR          REDREP         Ir          [  0]    ***   
       REFERENCE            IREFNC         RHF         [  0]    ***   
       RELATIVIST           IRELAT         OFF         [  0]    ***   
       RELAX_DENS           IRDENS         OFF         [  0]    ***   
       RESET_FLAGS          IRESET         OFF         [  0]    ***   
       RESTART_CC           ICCRES         OFF         [  0]    ***   
       ROT_EVEC             ROTVEC              0               ***   
       SAVE_INTS            ISVINT         OFF         [  0]    ***   
       SCALE_ON             ISTCRT              0               ***   
       SCF_CONV             ISCFCV          10D-  8             ***   
       SCF_DAMPING          IDAMP               0             x 10-3  
       SCF_EXPORDE          IRPPOR              6               ***   
       SCF_EXPSTAR          IRPPLS              8               ***   
       SCF_EXTRAPO          IRPP           ON          [  1]    ***   
       SCF_MAXCYC           ISCFCY            150              cycles 
       SCF_NOSTOP           ISCFST         OFF         [  0]    ***   
       SCF_PRINT            ISCFPR              0               ***   
       SCF_PROG             ISCFPR         SCF         [  0]    ***   
       SD_FIELD             IFINSD              0             x 10-6  
       SOPERT               IPERSO         OFF         [  0]    ***   
       SPHERICAL            IDFGHI         ON          [  1]    ***   
       SPINORBIT            ISOCAL         OFF         [  0]    ***   
       SPINROTATIO          ISRCON         OFF         [  0]    ***   
       SPIN_FLIP            ISPFLP         OFF         [  0]    ***   
       SPIN_ORBIT           ISPORB         OFF         [  0]    ***   
       SPIN_SCAL            ISCSMP         OFF         [  0]    ***   
       STEEPSCALE           ISTPSC              1000          x 10-3  
       SUBGROUP             ISUBGP         DEFAULT     [  0]    ***   
       SUBGRPAXIS           ISBXYZ         X           [  0]    ***   
       SYMMETRY             ISYM           ON          [  0]    ***   
       SYM_CHECK            ISYMCK         OVERRIDE    [  1]    ***   
       T3_EXTRAPOL          IT3EXT         ON          [  1]    ***   
       T4_EXTRAPOL          IT4EXP         OFF         [  0]    ***   
       TAMP_SUM             IEVERY              5               ***   
       TESTSUITE            ITESTS         OFF         [  0]    ***   
       THERMOCH             ITHERM         OFF         [  0]    ***   
       TOL_CHOLESK          ITOLCH          10D-  4             ***   
       TRANGRAD             IRESRM         OFF         [  0]    ***   
       TRANS_INV            ITRAIN         USE         [  0]    ***   
       TREAT_PERT           ITREAT         SIMULTANEOUS[  0]    ***   
       TRIP_ALGORI          ITRALG         NORMAL      [  0]    ***   
       UIJ_THRESHO          IUIJTH              1               ***   
       UNITS                IUNITS         BOHR        [  1]    ***   
       UNOS                 IUNOS          OFF         [  0]    ***   
       UPDATE_HESS          IHUPDT         ON          [  1]    ***   
       VIBPHASE             ISETPH         STANDARD    [  0]    ***   
       VIBRATION            IVIB           NO          [  0]    ***   
       VIB_ALGORIT          IGEALG         STANDARD    [  0]    ***   
       VNATORB              IVNORB         OFF         [  0]    ***   
       VTRAN                IVTRAN         FULL/PARTIAL[  0]    ***   
       XFIELD               IXEFLD              0             x 10-6  
       XFORM_TOL            IXFTOL          10D- 11             ***   
       YFIELD               IYEFLD              0             x 10-6  
       ZFIELD               IZEFLD              0             x 10-6  
       ZSCALE_EXP           IZEXPS         OFF         [  0]    ***   
    -------------------------------------------------------------------
  @GETXYZ-I,     2 atoms read from ZMAT.
   Rotational constants (in cm-1): 
         10.5830905500            10.5830905500
   Rotational constants (in MHz): 
     317273.1173699838        317273.1173699838
********************************************************************************
   The full molecular point group is CXv .
   The largest Abelian subgroup of the full molecular point group is C2v .
   The computational point group is C2v .
********************************************************************************


 ----------------------------------------------------------------
         Coordinates used in calculation (QCOMP) 
 ----------------------------------------------------------------
 Z-matrix   Atomic            Coordinates (in bohr)
  Symbol    Number           X              Y              Z
 ----------------------------------------------------------------
     CL       17        -0.00000000     0.00000000     0.06750444
     H         1         0.00000000     0.00000000    -2.34222479
 ----------------------------------------------------------------
 
   Interatomic distance matrix (Angstroms) 
 
                 CL            H    
                [ 1]        [ 2]
  CL   [ 1]     0.00000
  H    [ 2]     1.27517     0.00000
 rotcon2
   Rotational constants (in cm-1): 
         10.5830905500             0.0000000000
   Rotational constants (in MHz): 
     317273.1173699838             0.0000000000
  There are   5 frozen-core orbitals.
  There are   73 basis functions.
 @GEOPT-W, Archive file not created for single-point calculation.
 @CHECKOUT-I, Total execution time (CPU/WALL):        0.18/       6.10 seconds.
--executable xjoda finished with status     0 in        8.81 seconds (walltime).
 --invoking executable--
/home/CEISAM/blondel-a/soft/cfour2.1/cfour2.1-serial-mkl/bin/xvmol
 SERIAL VERSION OF MOLECULE STARTED
********************************************************************************
                    INPUT FROM MOL FILE
********************************************************************************
INTGRL        1    0    1    0    0    0    0    0    0                         
         *** CFOUR Program System (Release V0.1) ***                            
Ketene -GS                                                                      
    2    2 X  Y       0.10E-08              0    0                              
   9999.00      3.00                                                            
         17.00000000    1    4    1    1    1    1                              
CL#1  -0.000000000000000   0.000000000000000   0.067504438739180                
   16    6                                                                      
   456100.000000000       4.930000000000000E-005 -1.380000000000000E-005        
  4.200000000000000E-006  0.000000000000000E+000  0.000000000000000E+000        
  0.000000000000000E+000                                                        
   68330.0000000000       3.830000000000000E-004 -1.073000000000000E-004        
  3.240000000000000E-005  0.000000000000000E+000  0.000000000000000E+000        
  0.000000000000000E+000                                                        
   15550.0000000000       2.008500000000000E-003 -5.651000000000000E-004        
  1.711000000000000E-004  0.000000000000000E+000  0.000000000000000E+000        
  0.000000000000000E+000                                                        
   4405.00000000000       8.385600000000000E-003 -2.361400000000000E-003        
  7.142000000000000E-004  0.000000000000000E+000  0.000000000000000E+000        
  0.000000000000000E+000                                                        
   1439.00000000000       2.947030000000000E-002 -8.458900000000000E-003        
  2.567000000000000E-003  0.000000000000000E+000  0.000000000000000E+000        
  0.000000000000000E+000                                                        
   520.400000000000       8.783249999999999E-002 -2.596380000000000E-002        
  7.885500000000000E-003  0.000000000000000E+000  0.000000000000000E+000        
  0.000000000000000E+000                                                        
   203.100000000000       0.211473000000000      -6.863619999999999E-002        
  2.108670000000000E-002  0.000000000000000E+000  0.000000000000000E+000        
  0.000000000000000E+000                                                        
   83.9600000000000       0.365364000000000      -0.141874000000000             
  4.422640000000000E-002  0.000000000000000E+000  0.000000000000000E+000        
  0.000000000000000E+000                                                        
   36.2000000000000       0.340884000000000      -0.199319000000000             
  6.516700000000000E-002  0.000000000000000E+000  0.000000000000000E+000        
  0.000000000000000E+000                                                        
   15.8300000000000       0.102133000000000      -1.956620000000000E-002        
  6.030100000000000E-003  0.000000000000000E+000  0.000000000000000E+000        
  0.000000000000000E+000                                                        
   6.33400000000000       3.116800000000000E-003  0.499741000000000             
 -0.206495000000000       0.000000000000000E+000  0.000000000000000E+000        
  0.000000000000000E+000                                                        
   2.69400000000000       1.057500000000000E-003  0.563736000000000             
 -0.405871000000000       0.000000000000000E+000  0.000000000000000E+000        
  0.000000000000000E+000                                                        
  0.976800000000000      -3.780000000000000E-004  7.903250000000001E-002        
  7.595580000000000E-002   1.00000000000000       0.000000000000000E+000        
  0.000000000000000E+000                                                        
  0.431300000000000       1.561000000000000E-004 -8.350900000000000E-003        
  0.725661000000000       0.000000000000000E+000  0.000000000000000E+000        
  0.000000000000000E+000                                                        
  0.162500000000000      -5.140000000000000E-005  2.324600000000000E-003        
  0.394423000000000       0.000000000000000E+000   1.00000000000000             
  0.000000000000000E+000                                                        
  5.910000000000000E-002  0.000000000000000E+000  0.000000000000000E+000        
  0.000000000000000E+000  0.000000000000000E+000  0.000000000000000E+000        
   1.00000000000000                                                             
   10    5                                                                      
   663.300000000000       2.404500000000000E-003 -6.521000000000000E-004        
  0.000000000000000E+000  0.000000000000000E+000  0.000000000000000E+000        
   156.800000000000       1.921480000000000E-002 -5.194500000000000E-003        
  0.000000000000000E+000  0.000000000000000E+000  0.000000000000000E+000        
   49.9800000000000       8.850970000000000E-002 -2.469380000000000E-002        
  0.000000000000000E+000  0.000000000000000E+000  0.000000000000000E+000        
   18.4200000000000       0.256020000000000      -7.281670000000000E-002        
  0.000000000000000E+000  0.000000000000000E+000  0.000000000000000E+000        
   7.24000000000000       0.436927000000000      -0.134030000000000             
  0.000000000000000E+000  0.000000000000000E+000  0.000000000000000E+000        
   2.92200000000000       0.350334000000000      -9.477420000000000E-002        
  0.000000000000000E+000  0.000000000000000E+000  0.000000000000000E+000        
   1.02200000000000       5.854950000000000E-002  0.262289000000000             
   1.00000000000000       0.000000000000000E+000  0.000000000000000E+000        
  0.381800000000000      -4.584200000000000E-003  0.564667000000000             
  0.000000000000000E+000  0.000000000000000E+000  0.000000000000000E+000        
  0.130100000000000       2.269700000000000E-003  0.341250000000000             
  0.000000000000000E+000   1.00000000000000       0.000000000000000E+000        
  4.190000000000000E-002  0.000000000000000E+000  0.000000000000000E+000        
  0.000000000000000E+000  0.000000000000000E+000   1.00000000000000             
    3    3                                                                      
   1.04600000000000        1.00000000000000       0.000000000000000E+000        
  0.000000000000000E+000                                                        
  0.344000000000000       0.000000000000000E+000   1.00000000000000             
  0.000000000000000E+000                                                        
  0.135000000000000       0.000000000000000E+000  0.000000000000000E+000        
   1.00000000000000                                                             
    2    2                                                                      
  0.706000000000000        1.00000000000000       0.000000000000000E+000        
  0.312000000000000       0.000000000000000E+000   1.00000000000000             
          1.00000000    1    3    1    1    1                                   
H #2   0.000000000000000   0.000000000000000  -2.342224785360820                
    6    4                                                                      
   33.8700000000000       6.068000000000000E-003  0.000000000000000E+000        
  0.000000000000000E+000  0.000000000000000E+000                                
   5.09500000000000       4.530800000000000E-002  0.000000000000000E+000        
  0.000000000000000E+000  0.000000000000000E+000                                
   1.15900000000000       0.202822000000000       0.000000000000000E+000        
  0.000000000000000E+000  0.000000000000000E+000                                
  0.325800000000000       0.503903000000000        1.00000000000000             
  0.000000000000000E+000  0.000000000000000E+000                                
  0.102700000000000       0.383421000000000       0.000000000000000E+000        
   1.00000000000000       0.000000000000000E+000                                
  2.526000000000000E-002  0.000000000000000E+000  0.000000000000000E+000        
  0.000000000000000E+000   1.00000000000000                                     
    3    3                                                                      
   1.40700000000000        1.00000000000000       0.000000000000000E+000        
  0.000000000000000E+000                                                        
  0.388000000000000       0.000000000000000E+000   1.00000000000000             
  0.000000000000000E+000                                                        
  0.102000000000000       0.000000000000000E+000  0.000000000000000E+000        
   1.00000000000000                                                             
    2    2                                                                      
   1.05700000000000        1.00000000000000       0.000000000000000E+000        
  0.247000000000000       0.000000000000000E+000   1.00000000000000             
FINISH                                                                          
 
********************************************************************************
 ONE- AND TWO-ELECTRON INTEGRALS OVER SYMMETRY-ADAPTED AOS ARE CALCULATED.

  SPHERICAL HARMONICS ARE USED.
  
  INTEGRALS LESS THAN  0.10E-13 ARE NEGLECTED.

  NUCLEAR REPULSION ENERGY :    7.0547345444 A.U.
  @MOLECU-I, ONE ELECTRON INTEGRALS (CPU/WALL):        0.04/       0.08 SECONDS.
  @TWOEL-I,      89758 INTEGRALS OF SYMMETRY TYPE  I I I I
  @TWOEL-I,     292269 INTEGRALS OF SYMMETRY TYPE  I J I J
  @TWOEL-I,     161472 INTEGRALS OF SYMMETRY TYPE  I I J J
  @TWOEL-I,     159185 INTEGRALS OF SYMMETRY TYPE  I J K L
  @TWOEL-I, TOTAL NUMBER OF 2-E INTEGRALS     702684.
  @MOLECU-I, TWO ELECTRON INTEGRALS (CPU/WALL):       14.13/       0.73 SECONDS.
 @CHECKOUT-I, Total execution time (CPU/WALL):       14.30/       0.84 seconds.

Running with 20 threads/proc

--executable xvmol finished with status     0 in        2.52 seconds (walltime).
 --invoking executable--
/home/CEISAM/blondel-a/soft/cfour2.1/cfour2.1-serial-mkl/bin/xvmol2ja
 @GETMEM-I,  Allocated  238418 MB of main memory.
 @CHECKOUT-I, Total execution time (CPU/WALL):        0.12/       0.09 seconds.
--executable xvmol2ja finished with status     0 in        1.28 seconds (walltime).
 --invoking executable--
/home/CEISAM/blondel-a/soft/cfour2.1/cfour2.1-serial-mkl/bin/xvscf
  There are   73 functions in the AO basis.

  There are 4 irreducible representations.

       Irrep        # of functions
         1                 32
         2                 17
         3                 17
         4                  7


  Parameters for SCF calculation: 
        SCF reference function:  RHF  
  Maximum number of iterations:  150
     Full symmetry point group: CXv 
     Computational point group: C2v 
        Initial density matrix: MOREAD                 
     SCF convergence tolerance: 10**(- 8)
  DIIS convergence acceleration:  ON
          Latest start for DIIS:   8
                     DIIS order:   6

  Memory information:     272912 words required.
  Fock matrices are constructed from AO integral file.
 @GETMEM-I,  Allocated       2 MB of main memory.
  Initialization and symmetry analysis required      0.003 seconds.

  @INITGES-I, Occupancies from core Hamiltonian:

          Alpha population by irrep:   5    2    2    0
           Beta population by irrep:   5    2    2    0


 total no. of electrons in initial guess :  0.000000000000000E+000
  --------------------------------------------------------------------
  Iteration         Total Energy            Largest Density Difference
  --------------------------------------------------------------------
       0             7.054734544437980              0.0000000000D+00
   current occupation vector 
     5  2  2  0
     5  2  2  0
       1          -443.089690654016863              0.1801399933D+02
   current occupation vector 
     5  2  2  0
     5  2  2  0
       2          -450.215420878195630              0.1689362829D+02
   current occupation vector 
     5  2  2  0
     5  2  2  0
       3          -457.583215335872808              0.1585196896D+02
   current occupation vector 
     5  2  2  0
     5  2  2  0
       4          -458.939069687545725              0.1812797480D+01
   current occupation vector 
     5  2  2  0
     5  2  2  0
       5          -459.861905750772564              0.1269413501D+01
   current occupation vector 
     5  2  2  0
     5  2  2  0
       6          -460.070786052378082              0.6782510891D+00
   current occupation vector 
     5  2  2  0
     5  2  2  0
       7          -460.102690296771584              0.2154400309D+00
   current occupation vector 
     5  2  2  0
     5  2  2  0
       8          -460.107572245516451              0.7516381845D-01
   current occupation vector 
     5  2  2  0
     5  2  2  0
       9          -460.107591643646458              0.4957513391D-02
   current occupation vector 
     5  2  2  0
     5  2  2  0
      10          -460.107593664212914              0.2374301283D-02
   current occupation vector 
     5  2  2  0
     5  2  2  0
      11          -460.107593807475496              0.3815570747D-03
   current occupation vector 
     5  2  2  0
     5  2  2  0
      12          -460.107593808932279              0.4462786496D-04
   current occupation vector 
     5  2  2  0
     5  2  2  0
      13          -460.107593808952515              0.3884429234D-05
   current occupation vector 
     5  2  2  0
     5  2  2  0
      14          -460.107593808952231              0.9174655828D-06
   current occupation vector 
     5  2  2  0
     5  2  2  0
      15          -460.107593808952515              0.2366170249D-06
   current occupation vector 
     5  2  2  0
     5  2  2  0
      16          -460.107593808952799              0.8441914678D-07
   current occupation vector 
     5  2  2  0
     5  2  2  0
      17          -460.107593808953368              0.2103637797D-07
   current occupation vector 
     5  2  2  0
     5  2  2  0

  SCF has converged.

 Density matrix saved to file den.dat
 total electron number:   18.0000000000000     
     E(SCF)=      -460.107593808953141              0.7532392710D-08

  Eigenvector printing suppressed.

 @PUTMOS-I, Writing converged MOs to NEWMOS. 
 @PUTMOS-I, Symmetry   1 Full Blocks  8 Partial Blocksize   0
 @PUTMOS-I, Symmetry   2 Full Blocks  4 Partial Blocksize   1
 @PUTMOS-I, Symmetry   3 Full Blocks  4 Partial Blocksize   1
 @PUTMOS-I, Symmetry   4 Full Blocks  1 Partial Blocksize   3
 @PUTFOCK-I, Writing converged Fock matrix to NEWFOCK. 
 @PUTFOCK-I, Symmetry   1 Full Blocks  8 Partial Blocksize   0
 @PUTFOCK-I, Symmetry   2 Full Blocks  4 Partial Blocksize   1
 @PUTFOCK-I, Symmetry   3 Full Blocks  4 Partial Blocksize   1
 @PUTFOCK-I, Symmetry   4 Full Blocks  1 Partial Blocksize   3


 
  ORBITAL EIGENVALUES (ALPHA)  (1H = 27.2113834 eV)

       MO #        E(hartree)               E(eV)           FULLSYM    COMPSYM
       ----   --------------------   --------------------   -------   ---------
    1     1        -104.8505619032       -2853.1288396531     SG+        A1 (1)
    2     2         -10.5754154858        -287.7716853981     SG+        A1 (1)
    3     3          -8.0425350863        -218.8485057412     SG+        A1 (1)
    4    33          -8.0403931334        -218.7902202407      PI        B1 (2)
    5    50          -8.0403931334        -218.7902202407      PI        B2 (3)
    6     4          -1.1175723588         -30.4106899328     SG+        A1 (1)
    7     5          -0.6255300631         -17.0215383755     SG+        A1 (1)
    8    34          -0.4772466841         -12.9865424963      PI        B1 (2)
    9    51          -0.4772466841         -12.9865424963      PI        B2 (3)
  +++++++++++++++++++++++++++++++++++++++++++++++++++++++++++++++++++++++++++++
   10     6           0.0294997283           0.8027284174     SG+        A1 (1)
   11     7           0.1057282995           2.8770132934     SG+        A1 (1)
   12    35           0.1154404952           3.1412955746      PI        B1 (2)
   13    52           0.1154404952           3.1412955746      PI        B2 (3)
   14     8           0.1455740122           3.9612702579     SG+        A1 (1)
   15     9           0.1924650809           5.2372411064     SG+        A1 (1)
   16    53           0.2394741368           6.5164225519      PI        B2 (3)
   17    36           0.2394741368           6.5164225519      PI        B1 (2)
   18    10           0.3480641637           9.4713074071     SG+        A1 (1)
   19    11           0.3496535664           9.5145572533      DE        A1 (1)
   20    67           0.3496535664           9.5145572533      DE        A2 (4)
   21    12           0.4300788481          11.7030404278     SG+        A1 (1)
   22    37           0.4363651562          11.8740995670      PI        B1 (2)
   23    54           0.4363651562          11.8740995670      PI        B2 (3)
   24    13           0.6243549764          16.9895626416     SG+        A1 (1)
   25    55           0.6299039837          17.1405588065      PI        B2 (3)
   26    38           0.6299039837          17.1405588065      PI        B1 (2)
   27    14           0.6656718952          18.1138531591     SG+        A1 (1)
   28    56           0.8535545732          23.2264007428      PI        B2 (3)
   29    39           0.8535545732          23.2264007428      PI        B1 (2)
   30    15           0.8610198233          23.4295405279      DE        A1 (1)
   31    68           0.8610198233          23.4295405279      DE        A2 (4)
   32    16           0.9199385987          25.0328019134     SG+        A1 (1)
   33    17           0.9352438491          25.4492789502      DE        A1 (1)
   34    69           0.9352438491          25.4492789502      DE        A2 (4)
   35    57           0.9689822926          26.3673486717      PI        B2 (3)
   36    40           0.9689822926          26.3673486717      PI        B1 (2)
   37    18           1.0889986340          29.6331593526     SG+        A1 (1)
   38    58           1.1886284064          32.3442232865      PH        B2 (3)
   39    41           1.1886284064          32.3442232865      PH        B1 (2)
   40    42           1.2958231243          35.2611398543      PI        B1 (2)
   41    59           1.2958231243          35.2611398543      PI        B2 (3)
   42    19           1.3030280534          35.4571959409     SG+        A1 (1)
   43    70           1.3750829265          37.4179087185      DE        A2 (4)
   44    20           1.3750829265          37.4179087185      DE        A1 (1)
   45    60           1.7591936486          47.8700928481      PI        B2 (3)
   46    43           1.7591936486          47.8700928481      PI        B1 (2)
   47    21           1.7695946023          48.1531171852     SG+        A1 (1)
   48    22           1.8650588248          50.7508307448     SG+        A1 (1)
   49    23           2.5045566619          68.1524515750     SG+        A1 (1)
   50    71           2.5148060491          68.4313515776      DE        A2 (4)
   51    24           2.5148060491          68.4313515776      DE        A1 (1)
   52    61           2.5593318519          69.6429602701      PI        B2 (3)
   53    44           2.5593318519          69.6429602701      PI        B1 (2)
   54    62           2.8347280101          77.1368707180      PI        B2 (3)
   55    45           2.8347280101          77.1368707180      PI        B1 (2)
   56    25           2.9110178002          79.2128214448     SG+        A1 (1)
   57    63           3.0297188707          82.4428417835      PI        B2 (3)
   58    46           3.0297188707          82.4428417835      PI        B1 (2)
   59    64           3.0563795145          83.1683147861      PH        B2 (3)
   60    47           3.0563795145          83.1683147861      PH        B1 (2)
   61    72           3.0616035922          83.3104691671      DE        A2 (4)
   62    26           3.0616035922          83.3104691671      DE        A1 (1)
   63    27           3.3066408564          89.9782721107     SG+        A1 (1)
   64    28           3.6122241694          98.2936168009     SG+        A1 (1)
   65    73           3.9091240201         106.3726724699      DE        A2 (4)
   66    29           3.9091240201         106.3726724699      DE        A1 (1)
   67    65           4.3925090012         119.5262465187      PI        B2 (3)
   68    48           4.3925090012         119.5262465187      PI        B1 (2)
   69    66           4.4937419279         122.2809345004      PI        B2 (3)
   70    49           4.4937419279         122.2809345004      PI        B1 (2)
   71    30           4.7585631021         129.4870850038     SG+        A1 (1)
   72    31           5.1331665115         139.6805620010     SG+        A1 (1)
   73    32           7.5198430281         204.6253317448     SG+        A1 (1)


  VSCF finished.

 @CHECKOUT-I, Total execution time (CPU/WALL):        4.35/       1.57 seconds.
--executable xvscf finished with status     0 in        2.59 seconds (walltime).
 --invoking executable--
/home/CEISAM/blondel-a/soft/cfour2.1/cfour2.1-serial-mkl/bin/xvtran
 @GETMEM-I,  Allocated  238418 MB of main memory.
  Full RHF integral transformation
  The following   5 MOs will be dropped:
    1  2  3  6  8
  There are  68 active molecular orbitals.
  Transformation of IIII integrals :
  1 pass through the AO integral file was required.
       89758 AO integrals were read.
      109389 MO integrals were written to HF2.
  Transformation of IIJJ integrals :
  1 pass through the AO integral file was required.
      161472 AO integrals were read.
      155864 MO integrals were written to HF2.
  Transformation of IJIJ integrals :
  1 pass through the AO integral file was required.
      292269 AO integrals were read.
      277747 MO integrals were written to HF2.
  Transformation of IJKL integrals :
  1 pass through the AO integral file was required.
      159185 AO integrals were read.
      152570 MO integrals were written to HF2.
  Summary of active molecular orbitals: 
------------------------------------------------------------------------
 
  Index      Eigenvalue    Symmetry    Index      Eigenvalue    Symmetry
------------------------------------------------------------------------
     1        -1.1175724        1        35         0.6299040        2
     2        -0.6255301        1        36         0.8535546        2
     3        -0.4772467        2        37         0.9689823        2
     4        -0.4772467        3        38         1.1886284        2
     5         0.0294997        1        39         1.2958231        2
     6         0.1057283        1        40         1.7591936        2
     7         0.1455740        1        41         2.5593319        2
     8         0.1924651        1        42         2.8347280        2
     9         0.3480642        1        43         3.0297189        2
    10         0.3496536        1        44         3.0563795        2
    11         0.4300788        1        45         4.3925090        2
    12         0.6243550        1        46         4.4937419        2
    13         0.6656719        1        47         0.1154405        3
    14         0.8610198        1        48         0.2394741        3
    15         0.9199386        1        49         0.4363652        3
    16         0.9352438        1        50         0.6299040        3
    17         1.0889986        1        51         0.8535546        3
    18         1.3030281        1        52         0.9689823        3
    19         1.3750829        1        53         1.1886284        3
    20         1.7695946        1        54         1.2958231        3
    21         1.8650588        1        55         1.7591936        3
    22         2.5045567        1        56         2.5593319        3
    23         2.5148060        1        57         2.8347280        3
    24         2.9110178        1        58         3.0297189        3
    25         3.0616036        1        59         3.0563795        3
    26         3.3066409        1        60         4.3925090        3
    27         3.6122242        1        61         4.4937419        3
    28         3.9091240        1        62         0.3496536        4
    29         4.7585631        1        63         0.8610198        4
    30         5.1331665        1        64         0.9352438        4
    31         7.5198430        1        65         1.3750829        4
    32         0.1154405        2        66         2.5148060        4
    33         0.2394741        2        67         3.0616036        4
    34         0.4363652        2        68         3.9091240        4
------------------------------------------------------------------------
  -1.11757235881068      -0.625530063110627      -0.477246684057036     
 -0.477246684057032       2.949972831590683E-002  0.105728299481452     
  0.145574012156034       0.192465080861090       0.348064163731889     
  0.349653566428257       0.430078848096138       0.624354976438018     
  0.665671895208338       0.861019823340721       0.919938598690937     
  0.935243849093667        1.08899863402829        1.30302805335733     
   1.37508292645376        1.76959460228056        1.86505882478682     
   2.50455666193862        2.51480604905948        2.91101780017418     
   3.06160359223452        3.30664085643872        3.61222416942212     
   3.90912402012853        4.75856310208100        5.13316651151857     
   7.51984302807762       0.115440495191997       0.239474136840170     
  0.436365156173346       0.629903983732700       0.853554573150271     
  0.968982292596813        1.18862840639391        1.29582312431423     
   1.75919364864243        2.55933185190688        2.83472801011786     
   3.02971887065282        3.05637951454005        4.39250900116713     
   4.49374192788603       0.115440495192001       0.239474136840163     
  0.436365156173349       0.629903983732645       0.853554573150264     
  0.968982292596797        1.18862840639389        1.29582312431424     
   1.75919364864233        2.55933185190673        2.83472801011762     
   3.02971887065277        3.05637951454003        4.39250900116697     
   4.49374192788601       0.349653566428263       0.861019823340724     
  0.935243849093671        1.37508292645374        2.51480604905941     
   3.06160359223447        3.90912402012849     
 @CHECKOUT-I, Total execution time (CPU/WALL):        4.60/       0.36 seconds.
--executable xvtran finished with status     0 in        1.18 seconds (walltime).
 --invoking executable--
/home/CEISAM/blondel-a/soft/cfour2.1/cfour2.1-serial-mkl/bin/xintprc
 @GETMEM-I,  Allocated  238418 MB of main memory.
  @GMOIAA-I, Processing MO integrals for spin case AA.
  @GMOIAA-I, Generation of integral list completed.
                      TYPE                NUMBER
                      ----               --------
                      PPPP                544508
                      PPPH                135984
                      PPHH                  8669
                      PHPH                  5670
                      PHHH                   717
                      HHHH                    22

                     TOTAL                695570

  @FORMT2-I, Second-order MP correlation energies:
            ------------------------------------------------
            E(SCF)                  =   -460.107593808953 a.u.
            E2(AA)                  =     -0.024091643034 a.u.
            E2(AB)                  =     -0.159352883043 a.u.
            E2(TOT)                 =     -0.207536169111 a.u.
            Total MP2 energy        =   -460.315129978064 a.u.
            ------------------------------------------------
   Largest T2 amplitudes for spin case AB:
       _       _                 _       _                 _       _
   i   j   a   b             i   j   a   b             i   j   a   b
-----------------------------------------------------------------------------
[  2   2   7   7]-0.02141 [  4   4  50  50]-0.02137 [  3   3  35  35]-0.02137
[  3   3  10  10]-0.01827 [  4   4  62  62]-0.01827 [  3   3  62  62]-0.01827
[  4   4  10  10]-0.01827 [  2   2   9   9]-0.01799 [  3   3  16  16]-0.01771
[  4   4  16  16]-0.01771 [  3   3  64  64]-0.01771 [  4   4  64  64]-0.01771
[  3   3  34  34]-0.01598 [  4   4  49  49]-0.01598 [  2   2   9   7] 0.01597
-----------------------------------------------------------------------------
   Norm of T2AB vector (    17184 symmetry allowed elements):  0.2341087003.
-----------------------------------------------------------------------------
 @CHECKOUT-I, Total execution time (CPU/WALL):        1.27/       0.32 seconds.
--executable xintprc finished with status     0 in        3.04 seconds (walltime).
  calling xncc 
 --invoking executable--
/home/CEISAM/blondel-a/soft/cfour2.1/cfour2.1-serial-mkl/bin/xncc
 @GETMEM-I,  Allocated       7 MB of main memory.

Running with 20 threads/proc

Following the lowest-energy eigenvector.
Using a partitioned Davidson procedure.
Using discrete restarting.
Using an orthogonal subspace.
Orthogonalizing against previous roots.
Using Modified Gram-Schmidt orthogonalization.

Using DIIS to accelerate the convergence of T1 and T2
Using DIIS to accelerate the convergence of T3
Using immediate high-order contributions
Performing 2 CCSDT sub-iterations
Damping factor for T3: 0.000000
Damping factor for T4: 0.000000

Transposes are coarse-threaded

Memory limit:                232.831 GiB
Minimum memory requirement:   67.538 MiB
Compromise memory amount:      1.314 GiB
Optimal memory requirement:    1.981 GiB

List              Location   Size        Cached Hunks Est. Disk I/O
----------------- ---------- ----------- ------ ----- -------------

           HR_DAV      470:1    4.084 MiB    Yes     -     2.005 GiB
                R        471  128.500 KiB    Yes     -    11.294 MiB
            R_DAV      470:0    4.084 MiB    Yes     -     3.646 GiB
           T_DIIS       70:0  674.531 KiB    Yes     -    11.857 MiB
           Z_DIIS       70:1  674.531 KiB    Yes     -    19.762 MiB
          <AI|bj>         18  134.250 KiB    Yes     -    24.579 MiB
          <Ab|Cd>        233   32.611 MiB    Yes     -    62.801 GiB
          <Ab|Ci>         30    2.061 MiB    Yes     -     3.983 GiB
          <Ab|Ij>         16  134.250 KiB    Yes     -   305.207 MiB
          <Ai|Bj>         25  134.250 KiB    Yes     -    22.156 MiB
          <Aj|bI>         21  134.250 KiB     No     -         0   B
          <Ij|Ka>         10    8.625 KiB    Yes     -    21.553 MiB
          <Ij|Kl>         13      576   B    Yes     -    43.875 KiB
           DD(AI)      448:8      672   B    Yes     -     8.000 KiB
        DD(Ab,Ij)        450  134.250 KiB    Yes     -     2.000 MiB
            F(EA)       92:0    9.594 KiB    Yes     -     4.956 MiB
            F(EM)       93:0      672   B    Yes     -   367.500 KiB
            F(MI)       91:0       48   B    Yes     -    32.531 KiB
           HR(AI)      490:2      672   B    Yes     -   562.500 KiB
        HR(Ab,Ij)        463  134.250 KiB    Yes     -   244.400 MiB
            Q(AI)      190:2      672   B    Yes     -   236.250 KiB
         Q(Ab,Ij)         50  134.250 KiB    Yes     -   200.588 MiB
        QQ(Ab,Ij)          3  134.250 KiB    Yes     -    30.152 MiB
            R(AI)      490:0      672   B    Yes     -     1.289 MiB
         R(Ab,Ij)        446  134.250 KiB    Yes     -   396.275 MiB
            T(AI)       90:0      672   B    Yes     -     1.113 MiB
         T(Ab,Ij)         46  134.250 KiB    Yes     -   386.619 MiB
         W(Mn,Ij)         53      576   B    Yes     -   321.750 KiB
        W~(Ab,Ej)        130    2.061 MiB    Yes     -     2.951 GiB
        W~(EM,bj)         56  134.250 KiB    Yes     -   145.207 MiB
        W~(Em,Bj)         58  134.250 KiB    Yes     -   176.203 MiB
        W~(Ij,Mb)        110    8.625 KiB    Yes     -     9.905 MiB
       W~~(Ab,Ef)         33   32.611 MiB    Yes     -   684.828 MiB
       W~~(Ab,Ej)        169    2.061 MiB    Yes     -     2.033 GiB
       W~~(EM,bj)         76  134.250 KiB    Yes     -    65.027 MiB
       W~~(Em,Bj)         78  134.250 KiB    Yes     -    65.027 MiB
       W~~(Ij,Mb)        165    8.625 KiB    Yes     -    14.099 MiB
       W~~(Mn,Ij)        153      576   B    Yes     -    11.250 KiB
         X(Ab,Ef)        433   32.611 MiB    Yes     -    13.125 GiB
         X(Ab,Ej)        430    2.061 MiB    Yes     -     1.318 GiB
         X(Ab,Ij)        416  134.250 KiB     No     -         0   B
            X(EA)      492:0    9.594 KiB    Yes     -     1.284 MiB
            X(EM)      493:0      672   B    Yes     -    75.000 KiB
         X(EM,bj)        418  134.250 KiB    Yes     -    28.125 MiB
         X(Ef,Am)        469    2.061 MiB    Yes     -   390.000 MiB
         X(Em,Bj)        425  134.250 KiB    Yes     -    35.625 MiB
         X(Ij,Mb)        410    8.625 KiB    Yes     -     7.174 MiB
            X(MI)      491:0       48   B    Yes     -     6.094 KiB
         X(Mn,Ie)        465    8.625 KiB    Yes     -     4.127 MiB
         X(Mn,Ij)        413      576   B    Yes     -    90.000 KiB
            Z(AI)       90:2      672   B    Yes     -   236.250 KiB
         Z(Ab,Ij)         63  134.250 KiB    Yes     -    47.197 MiB
      HR(abc,ijk)    HR3FILE    8.122 MiB    Yes     1     5.625 GiB
    HR(abcd,ijkl)          -  611.053 MiB     No     1         0   B
            HR3_1      HR3_1    8.122 MiB    Yes     1     5.656 GiB
           HR3_10     HR3_10    8.122 MiB    Yes     1     6.469 GiB
           HR3_11     HR3_11    8.122 MiB    Yes     1     6.055 GiB
           HR3_12     HR3_12    8.122 MiB    Yes     1     6.172 GiB
           HR3_13     HR3_13    8.122 MiB    Yes     1     6.289 GiB
           HR3_14     HR3_14    8.122 MiB    Yes     1     6.406 GiB
           HR3_15     HR3_15    8.122 MiB    Yes     1     6.523 GiB
           HR3_16     HR3_16    8.122 MiB    Yes     1     6.641 GiB
           HR3_17     HR3_17    8.122 MiB    Yes     1     6.758 GiB
           HR3_18     HR3_18    8.122 MiB    Yes     1     6.875 GiB
           HR3_19     HR3_19    8.122 MiB    Yes     1     6.992 GiB
            HR3_2      HR3_2    8.122 MiB    Yes     1     5.547 GiB
           HR3_20     HR3_20    8.122 MiB    Yes     1     7.109 GiB
           HR3_21     HR3_21    8.122 MiB    Yes     1   328.000 MiB
           HR3_22     HR3_22    8.122 MiB    Yes     1   328.000 MiB
           HR3_23     HR3_23    8.122 MiB    Yes     1   328.000 MiB
           HR3_24     HR3_24    8.122 MiB    Yes     1   328.000 MiB
           HR3_25     HR3_25    8.122 MiB    Yes     1   328.000 MiB
           HR3_26     HR3_26    8.122 MiB    Yes     1   328.000 MiB
           HR3_27     HR3_27    8.122 MiB    Yes     1   328.000 MiB
           HR3_28     HR3_28    8.122 MiB    Yes     1   328.000 MiB
           HR3_29     HR3_29    8.122 MiB    Yes     1   328.000 MiB
            HR3_3      HR3_3    8.122 MiB    Yes     1     5.672 GiB
           HR3_30     HR3_30    8.122 MiB    Yes     1   328.000 MiB
           HR3_31     HR3_31    8.122 MiB     No     1         0   B
            HR3_4      HR3_4    8.122 MiB    Yes     1     5.797 GiB
            HR3_5      HR3_5    8.122 MiB    Yes     1     5.922 GiB
            HR3_6      HR3_6    8.122 MiB    Yes     1     6.047 GiB
            HR3_7      HR3_7    8.122 MiB    Yes     1     6.172 GiB
            HR3_8      HR3_8    8.122 MiB    Yes     1     6.297 GiB
            HR3_9      HR3_9    8.122 MiB    Yes     1     6.422 GiB
       Q(abc,ijk)     Q3FILE    8.122 MiB    Yes     1   487.324 MiB
       R(abc,ijk)     R3FILE    8.122 MiB    Yes     1    13.477 GiB
             R3_1       R3_1    8.122 MiB    Yes     1    10.734 GiB
            R3_10      R3_10    8.122 MiB    Yes     1    11.547 GiB
            R3_11      R3_11    8.122 MiB    Yes     1    10.977 GiB
            R3_12      R3_12    8.122 MiB    Yes     1    11.094 GiB
            R3_13      R3_13    8.122 MiB    Yes     1    11.211 GiB
            R3_14      R3_14    8.122 MiB    Yes     1    11.328 GiB
            R3_15      R3_15    8.122 MiB    Yes     1    11.445 GiB
            R3_16      R3_16    8.122 MiB    Yes     1    11.562 GiB
            R3_17      R3_17    8.122 MiB    Yes     1    11.680 GiB
            R3_18      R3_18    8.122 MiB    Yes     1    11.797 GiB
            R3_19      R3_19    8.122 MiB    Yes     1    11.914 GiB
             R3_2       R3_2    8.122 MiB    Yes     1    10.625 GiB
            R3_20      R3_20    8.122 MiB    Yes     1    11.797 GiB
            R3_21      R3_21    8.122 MiB    Yes     1   328.000 MiB
            R3_22      R3_22    8.122 MiB    Yes     1   328.000 MiB
            R3_23      R3_23    8.122 MiB    Yes     1   328.000 MiB
            R3_24      R3_24    8.122 MiB    Yes     1   328.000 MiB
            R3_25      R3_25    8.122 MiB    Yes     1   328.000 MiB
            R3_26      R3_26    8.122 MiB    Yes     1   328.000 MiB
            R3_27      R3_27    8.122 MiB    Yes     1   328.000 MiB
            R3_28      R3_28    8.122 MiB    Yes     1   328.000 MiB
            R3_29      R3_29    8.122 MiB    Yes     1   328.000 MiB
           R3_2_1     R3_2_1    8.000 MiB    Yes     1   600.000 MiB
             R3_3       R3_3    8.122 MiB    Yes     1    10.750 GiB
            R3_30      R3_30    8.122 MiB    Yes     1   328.000 MiB
            R3_31      R3_31    8.122 MiB     No     1         0   B
             R3_4       R3_4    8.122 MiB    Yes     1    10.875 GiB
             R3_5       R3_5    8.122 MiB    Yes     1    11.000 GiB
             R3_6       R3_6    8.122 MiB    Yes     1    11.125 GiB
             R3_7       R3_7    8.122 MiB    Yes     1    11.250 GiB
             R3_8       R3_8    8.122 MiB    Yes     1    11.375 GiB
             R3_9       R3_9    8.122 MiB    Yes     1    11.500 GiB
       T(abc,ijk)     T3FILE    8.122 MiB    Yes     1     1.793 GiB
     T(abcd,ijkl)          -  611.053 MiB     No     1         0   B
             T3_1       T3_1    8.122 MiB    Yes     1   243.662 MiB
             T3_2       T3_2    8.122 MiB    Yes     1   121.831 MiB
             T3_3       T3_3    8.122 MiB    Yes     1   121.831 MiB
             T3_4       T3_4    8.122 MiB    Yes     1   121.831 MiB
             T3_5       T3_5    8.122 MiB    Yes     1   121.831 MiB
       W(abc,ije)    WABCIJE  322.442 MiB    Yes     1    19.208 GiB
       W(abm,ijk)    WABMIJK    1.274 MiB    Yes     1    77.739 MiB
       X(abc,ije)    XABCIJE  322.442 MiB    Yes     1     9.375 GiB
       X(abm,ijk)    XABMIJK    1.274 MiB    Yes     1    37.500 MiB
       X(mnd,jkl)    XMNDJKL   82.500 KiB     No     1         0   B
       Z(abc,ijk)     Z3FILE    8.122 MiB    Yes     1     1.309 GiB
     Z(abcd,ijkl)          -  611.053 MiB     No     1         0   B
             Z3_1       Z3_1    8.122 MiB    Yes     1   243.662 MiB
             Z3_2       Z3_2    8.122 MiB    Yes     1   243.662 MiB
             Z3_3       Z3_3    8.122 MiB    Yes     1   243.662 MiB
             Z3_4       Z3_4    8.122 MiB    Yes     1   243.662 MiB
             Z3_5       Z3_5    8.122 MiB    Yes     1   243.662 MiB

Simulation and memory analysis took 1.689 seconds

MP2 correlation energy:  -0.207536169110955

Non-iterative calculation of MP2 took 0.062 cpu seconds and 0.003 walltime seconds at 0.234 Gflops/sec

Total MP2 energy: -460.315129978064078

Beginning iterative solution of CC4 equations:

It.  Correlation Energy T1 Residual T2 Residual T3 Residual CPU Time (s) Walltime (s)
-------------------------------------------------------------------------------------
  1  -0.235843998304972 5.29428e-04 1.07020e-03 8.44345e-05      773.631       40.299
  2  -0.236472871310579 5.18725e-05 1.06565e-04 1.03937e-05      757.212       38.999
  3  -0.236515379987650 2.88862e-06 3.80666e-06 1.20751e-06      763.405       39.100
  4  -0.236515997191567 3.12491e-07 5.88209e-08 1.20325e-07      758.715       38.818
  5  -0.236515968669098 2.54798e-08 3.84876e-09 1.12492e-08      750.833       38.490

   A    I                     A    I                     A    I                  
-------------------------- -------------------------- -------------------------- 
  17    8  0.0058269923713   22    8 -0.0040119833775   29    8 -0.0029724197732 
  16    9  0.0058269923713   18    7 -0.0036205656790   21    7  0.0028642910459 
  32    7 -0.0055532819429   15    7 -0.0034735030538   27    7  0.0027560494721 
  37    7 -0.0046814998759   21    6  0.0029850198410   49    7 -0.0026971724371 
  23    9 -0.0040119833775   28    9 -0.0029724197732   37    6 -0.0025249321378 

   A    B    I    J                     A    B    I    J                  
------------------------------------ ------------------------------------ 
  14   14    7    7 -0.0301078872948   19   19    8    8 -0.0213167308972 
  25   25    9    9 -0.0240639260998   20   20    9    9 -0.0213167308972 
  26   26    8    8 -0.0240639260998   20   20    8    8 -0.0213167308972 
  18   18    7    7 -0.0235906600643   19   19    9    9 -0.0213167308972 
  18   14    7    7  0.0227740753324   33   33    8    8 -0.0206718577651 
  14   18    7    7  0.0227740753324   33   33    9    9 -0.0206718577651 
  15   14    7    7  0.0217726166900   34   34    8    8 -0.0206718577651 
  14   15    7    7  0.0217726166900 

It.  Correlation Energy T1 Residual T2 Residual T3 Residual CPU Time (s) Walltime (s)
-------------------------------------------------------------------------------------

CC4 iterations converged in 5 cycles and 195.706 seconds (39.141 s/it.) at 2.230 Gflops/sec

Total CC4 energy: -460.344109777622236

             _
Formation of H took 0.688 seconds at 8.246 Gflops/sec

Searching for 1 roots in irrep 2

EOMEE-CCSD guess vector:

   A    I                  
-------------------------- 
  10    8  1.0000000000000 

Beginning iterative solution of EOMEE-CC4 equations:

It.  Correlation Energy R1 Residual R2 Residual R3 Residual CPU Time (s) Walltime (s)
-------------------------------------------------------------------------------------
  1   0.421104974963458 3.29139e-02 5.45485e-02 2.19673e-03     1574.669       81.295
  2   0.347873549667064 1.06824e-01 2.10078e-02 3.43055e-03     1546.259       80.510
  3   0.318652506631152 2.94460e-02 9.84597e-03 2.60080e-03     1540.327       79.414
  4   0.306759229117880 3.45935e-02 4.68256e-03 4.43416e-03     1535.008       79.262
  5   0.293925541862724 1.77798e-02 5.77989e-03 1.82795e-03     1553.763       80.199
  6   0.289470351188309 1.25928e-02 3.20848e-03 1.64912e-03     1554.852       79.927
  7   0.288653988227802 5.12238e-03 1.87562e-03 7.51807e-04     1540.919       79.381
  8   0.288242614090412 1.44664e-03 7.86209e-04 2.64860e-04     1555.894       79.955
  9   0.287965857288090 3.86170e-04 2.95091e-04 8.60684e-05     1557.553       80.184
Locking on root: 0.287976469429825
 10   0.287976469429825 2.26910e-04 1.32991e-04 3.14858e-05     1571.983       80.859
 11   0.288000658937110 1.59927e-04 4.71741e-05 1.32879e-05     1567.109       80.457
 12   0.287997604393859 8.67942e-05 1.95870e-05 4.62836e-06     1552.425       79.937
 13   0.287993918783605 4.65762e-05 1.40040e-05 2.52982e-06     1573.500       80.934
 14   0.287995410073027 1.31239e-05 5.49514e-06 1.26961e-06     1571.673       80.767
 15   0.287995854151814 4.19807e-06 1.96620e-06 6.44085e-07     1574.881       80.870

EOMEE-CC4 iterations converged in 15 cycles and 1203.950 seconds (80.263 s/it.) at 2.100 Gflops/sec

EOMEE-CC4 excitation energy:   0.287995854151802 (  7.836765604935170 eV)
Total EOMEE-CC4 energy:      -460.056113923470434

Converged root:

   A    I                     A    I                     A    I                  
-------------------------- -------------------------- -------------------------- 
  10    8 -0.4722982935768   24    8 -0.0535823156507   33    8 -0.0107445596812 
  14    8  0.4517649085272   20    9 -0.0199324762389   34    9 -0.0107445596812 
  18    8 -0.1278715726977   19    8 -0.0199324762389   27    8  0.0102303122154 
  15    8 -0.1074724665277   32    8 -0.0160085209370   48    8  0.0096623030545 
  21    8 -0.0577891863694   37    8  0.0121806717031   17    7 -0.0092137915214 

   A    B    I    J                     A    B    I    J                  
------------------------------------ ------------------------------------ 
  14   14    8    7  0.0371263203615   14   14    8    6 -0.0270430238183 
  14   14    7    8  0.0371263203615   14   14    6    8 -0.0270430238183 
  26   10    8    8  0.0336144685187   25   10    9    8  0.0267154160314 
  10   26    8    8  0.0336144685187   10   25    8    9  0.0267154160314 
  12   10    8    8 -0.0304716183108   14   15    8    7 -0.0243107036125 
  10   12    8    8 -0.0304716183108   15   14    7    8 -0.0243107036125 
  10   14    8    7 -0.0284551325919   13   10    9    8 -0.0238587485491 
  14   10    7    8 -0.0284551325919 

 @CHECKOUT-I, Total execution time (CPU/WALL):    27202.21/    1402.79 seconds.
--executable xncc finished with status     0 in     1404.58 seconds (walltime).
  The final electronic energy is      -460.056113923470434 a.u. 
  This computation required                         1426.01 seconds (walltime).
