 --invoking executable--
/home/CEISAM/blondel-a/soft/cfour2.1/cfour2.1-serial-mkl/bin/xjoda


   *************************************************************************
         <<<     CCCCCC     CCCCCC   |||     CCCCCC     CCCCCC   >>>
       <<<      CCC        CCC       |||    CCC        CCC         >>>
      <<<      CCC        CCC        |||   CCC        CCC            >>>
    <<<        CCC        CCC        |||   CCC        CCC              >>>
      <<<      CCC        CCC        |||   CCC        CCC            >>>
       <<<      CCC        CCC       |||    CCC        CCC         >>>
         <<<     CCCCCC     CCCCCC   |||     CCCCCC     CCCCCC   >>>
   *************************************************************************

     ****************************************************************
     * CFOUR Coupled-Cluster techniques for Computational Chemistry *
     ****************************************************************
 

   Department of Chemistry                Institut fuer Physikalische Chemie
   University of Florida                  Universitaet Mainz
   Gainesville, FL 32611, USA             D-55099 Mainz, Germany

   Department of Chemistry                Fakultaet fuer Chemie und Biowiss.
   Johns Hopkins University               Karlsruher Institut fuer Technologie
   Baltimore, MD 21218, USA               D-76131 Karlsruhe, Germany

   Department of Chemistry                Department of Physical Chemistry
   Southern Methodist University          Eotvos Lorand University
   Dallas, TX 75275, USA                  H-1053 Budapest, Hungary

 
                       Version 2.1
 
                     cribbar043                                        
                     Mon Mar 15 19:58:39 CET 2021                      
                     integer*8 version is running
 
********************************************************************************
*                          Input from ZMAT file                                *
********************************************************************************
Ketene -GS                                                                      
O    0.0000000000            0.0000000000           -0.1320966888               
H    0.0000000000            1.4315287786            0.9797000618               
H    0.0000000000           -1.4315287786            0.9797000618               
                                                                                
*CFOUR(COORD=CARTESIAN,UNITS=BOHR                                               
       MEMORY=250,MEM_UNIT=GB,CC_PROG=NCC                                       
       FROZEN_CORE=1                                                            
       CALC=CC4,BASIS=AUG-PVTZ                                                  
       SCF_CONV=8,CC_CONV=7,ESTATE_CONV=5,ESTATE_MAXCYC=120                     
       EXCITE=EOMEE,ESTATE_SYM=1/1/1/1)                                         
                                                                                
********************************************************************************
    -------------------------------------------------------------------
                    CFOUR Control Parameters 
    -------------------------------------------------------------------
        External           Internal           Value            Units
          Name               Name
    -------------------------------------------------------------------
       ABCDTYPE             IABCDT         STANDARD    [  0]    ***   
       ANHARMONIC           IANHAR         OFF         [  0]    ***   
       ANH_ALGORIT          IANALG         STANDARD    [  0]    ***   
       ANH_DERIVAT          IANDER         SECOND      [  1]    ***   
       ANH_MODE             ANHMOD         VIBRATION   [  0]    ***   
       ANH_STEPSIZ          ICUBST             50000          x 10-6  
       ANH_SYMMETR          IANHSM         ABELIAN     [  0]    ***   
       AO_LADDERS           IAOLAD         SINGLEPASS  [  1]    ***   
       AV_SCF               IAVSCF         OFF         [  0]    ***   
       BASIS                IBASIS         AUG-PVTZ    [ 34]    ***   
       BOTHVECTORS          BOTHVC         OFF         [  0]    ***   
       BOX_POTENT           IPIAB          OFF         [  0]    ***   
       BREIT                IBREIT         OFF         [  0]    ***   
       BRUCK_CONV           IBRTOL          10D-  4             ***   
       BRUECKNER            IBRKNR         OFF         [  0]    ***   
       BUFFERSIZE           IBUFFS              4096            ***   
       CACHE_RECS           ICHREC             10               ***   
       CALCLEVEL            ICLLVL         CC4         [ 52]    ***   
       CCORBOPT             ICCORB         OFF         [  0]  x 0.01  
       CC_CONV              ICCCNV          10D-  7             ***   
       CC_EXPORDER          ICCEOR              5               ***   
       CC_EXTRAPOL          ICCEXT         DIIS        [  1]    ***   
       CC_GUESS             ICCGES         MP2         [  0]    ***   
       CC_MAXCYC            ICCCYC            100              cycles 
       CC_PROGRAM           ICCPRO         NCC         [  5]    ***   
       CHARGE               ICHRGE              0               ***   
       CHOLESKY             ICHOLE         OFF         [  0]    ***   
       CIS_CONV             ICISTL              5               ***   
       COMM_SIZE            IPSIZE            ***               ***   
       CONSTANT             ICONST         OLD         [  1]    ***   
       CONTINUUM            ICONTU         NONE        [  0]    ***   
       CONTRACTION          ICNTYP         GENERAL     [  1]    ***   
       COORDINATES          ICOORD         CARTESIAN   [  1]    ***   
       CPHF_CONVER          ICPHFT          10D- 16             ***   
       CPHF_MAXCYC          ICPHFC             64              cycles 
       CUBIC                ICUBIC         OFF         [  0]    ***   
       CURVILINEAR          ICURVY         OFF         [  0]    ***   
       DBOC                 IDBOC          OFF         [  0]    ***   
       DCT                  IDCT           OFF         [  0]    ***   
       DERIV_LEV            IDRLVL         ZERO        [  0]    ***   
       DEVMEM_SIZE          IDVMEM         *********           MByte  
       DIAG_MRCC            IEOMST          10D-  0             ***   
       DIFF_TYPE            IDIFTY         RELAXED     [  0]    ***   
       DIRECT               IDIRCT         OFF         [  0]    ***   
       DROPMO               IDRPMO      NONE         
       ECP                  IECP           OFF         [  0]    ***   
       EIGENVECTOR          IVEC                1               ***   
       EL_ANHARM            IELANH         OFF         [  0]    ***   
       EOMFOLLOW            IEOMSR         ENERGY      [  0]    ***   
       EOMIP                IEOMIP         OFF         [  0]    ***   
       EOMLEVEL             HBARFM         SAME        [  0]    ***   
       EOM_MRCC             IMRCCE         NEW         [  1]    ***   
       EOM_NONIT            EOMNON         OFF         [  0]    ***   
       EOM_NSING            IEOMSI          10D-  0             ***   
       EOM_NSTATES          IMRCCD         DAVIDSON    [  0]    ***   
       EOM_NTRIP            IEOMTR          10D-  0             ***   
       EOM_ORDER            IEXORD         ENERGY      [  0]    ***   
       EOM_PROPSTA          IEOMST              0               ***   
       ESTATE_CONV          IEXTOL          10D-  5             ***   
       ESTATE_DIAG          IEXDIG         ITERATIVE   [  0]    ***   
       ESTATE_LOCK          IESLOC         ON          [  1]    ***   
       ESTATE_MAXC          IEXMXC            120               ***   
       ESTATE_PROP          IEXPRP         OFF         [  0]    ***   
       ESTATE_SYM           IEXSYM   1,  1,  1,  1,
       EVAL_HESS            IRECAL              0            # of cyc.
       EXCITATION           IEXCIT              0               ***   
       EXCITE               IEXCIT         EOMEE       [  3]    ***   
       EXTERN_POT           IEXPOT         OFF         [  0]    ***   
       FCGRADNEW            IFCGNW         OFF         [  0]    ***   
       FC_FIELD             IFINFC              0             x 10-6  
       FD_CALTYPE           IFDCAL         GRADONLY    [  0]    ***   
       FD_PROJECT           IFDPRJ         OFF         [  1]    ***   
       FD_STEPSIZE          IDISFD              0            10-4 bohr
       FD_USEGROUP          IFDGRP         FULL        [  0]    ***   
       FILE_RECSIZ          IFLREC              4096           words  
       FINITE_PERT          IFIPER              0             x 10-6  
       FIXGEOM              IFIXGM         OFF         [  0]    ***   
       FOCK                 IFOCK          AO          [  1]    ***   
       FREQ_ALGORI          IVIALG         STANDARD    [  0]    ***   
       FROZEN_CORE          IFROCO         ON          [  1]    ***   
       GAMMA_ABCD           IGABCD         STORE       [  0]    ***   
       GAMMA_ABCI           IGABCI         STORE       [  0]    ***   
       GENBAS_1             IGNBS1              0               ***   
       GENBAS_2             IGNBS2              0               ***   
       GENBAS_3             IGNBS3              0               ***   
       GENBAS_4             IGNBS4              0               ***   
       GEO_CONV             ICONTL              5              H/bohr 
       GEO_MAXCYC           IOPTCY             50               ***   
       GEO_MAXSTEP          IMXSTP            300            millibohr
       GEO_METHOD           INR            SINGLE_POINT[  5]    ***   
       GIAO                 IGIAO          OFF         [  1]    ***   
       GIMIC                IGIMIC         OFF         [  0]    ***   
       GRID                 IGRID          OFF         [  0]    ***   
       GRID_ALGO            IGALGO         SERIAL      [  0]    ***   
       GUESS                IGUESS         MOREAD      [  0]    ***   
       HBAR                 IHBAR          ON          [  1]    ***   
       HESS_TYPE            IHESTP         SCF         [  0]    ***   
       HF2_FILE             IHF2Fl         USE         [  1]    ***   
       HFSTABILITY          ISTABL         OFF         [  0]    ***   
       INCORE               INCORE         OFF         [  0]    ***   
       INPUT_MRCC           IMRCC          ON          [  1]    ***   
       INTEGRALS            INTTYP         VMOL        [  1]    ***   
       JODA_PRINT           IJPRNT              0               ***   
       KEYWORD_OUT          IDMPKW         NO          [  0]    ***   
       LINDEP_TOL           ILINDP              8               ***   
       LINEQ_CONV           IZTACN          10D-  7           cycles  
       LINEQ_EXPOR          ILMAXD              5               ***   
       LINEQ_MAXCY          ILMAXC            100               ***   
       LINEQ_TYPE           ILTYPE         DIIS        [  1]    ***   
       LOCK_ORBOCC          ILOCOC         OFF         [  0]    ***   
       MEMORY_SIZE          IMEMSZ         *********           words  
       MEM_UNIT             IMEMU          GB          [  3]    ***   
       MRCC                 IMRCCC         OFF         [  0]    ***   
       MULTIPLICTY          IMULTP              1               ***   
       NACOUPLING           IVCOUP         OFF         [  0]    ***   
       NEGEVAL              IDIE           ABORT       [  0]    ***   
       NEWNORM              INEWNO         OFF         [  0]    ***   
       NON-HF               INONHF         OFF         [  0]    ***   
       NTOP_TAMP            ITOPT2             15               ***   
       NUC_MODEL            INUCMO         POINT       [  0]    ***   
       OCCUPATION           IOCCU   ESTIMATED BY SCF 
       OPEN-SHELL           IOPEN          SPIN-ORBITAL[  0]    ***   
       OPTVIB               IOPTVB         OFF         [  0]    ***   
       ORBITALS             IORBTP         STANDARD    [  0]    ***   
       PARALLEL             IPARAL         ON          [  1]    ***   
       PARA_INT             IPINTS         ON          [  1]    ***   
       PARA_PRINT           IPPRIN              0               ***   
       PERT_ORB             IPTORB         STANDARD    [  0]    ***   
       POINTS               IGRDFD              0               ***   
       PRINT                IPRNT               0               ***   
       PROPS                IPROPS         OFF         [  0]    ***   
       PROP_INTEGR          IINTYP         INTERNAL    [  0]    ***   
       PSI                  IPSI           OFF         [  0]    ***   
       QC_ALG               IQCALG         FLM         [  0]    ***   
       QC_LINALG            IQCLIN         TRIDIAG     [  2]    ***   
       QC_MAXCYC            IQCMAX          10D-100           cycles  
       QC_MAXSCFCY          IQCMSC          10D- 15           cycles  
       QC_RTRUST            IQCRTR          10D-  0           x 10-3  
       QC_SKIPSCF           IQCSKI         OFF         [  0]    ***   
       QC_START             IQCSTA          10D-  1             ***   
       QRHFGUESS            IQGUES         OFF         [  0]    ***   
       QUARTIC              IQUART         OFF         [  0]    ***   
       RAMAN_INT            IRAMIN         OFF         [  0]    ***   
       RAMAN_ORB            IRAMRE         UNRELAXED   [  0]    ***   
       RDO                  IRDOFM         OFF         [  0]    ***   
       REDUCE_REPR          REDREP         Ir          [  0]    ***   
       REFERENCE            IREFNC         RHF         [  0]    ***   
       RELATIVIST           IRELAT         OFF         [  0]    ***   
       RELAX_DENS           IRDENS         OFF         [  0]    ***   
       RESET_FLAGS          IRESET         OFF         [  0]    ***   
       RESTART_CC           ICCRES         OFF         [  0]    ***   
       ROT_EVEC             ROTVEC              0               ***   
       SAVE_INTS            ISVINT         OFF         [  0]    ***   
       SCALE_ON             ISTCRT              0               ***   
       SCF_CONV             ISCFCV          10D-  8             ***   
       SCF_DAMPING          IDAMP               0             x 10-3  
       SCF_EXPORDE          IRPPOR              6               ***   
       SCF_EXPSTAR          IRPPLS              8               ***   
       SCF_EXTRAPO          IRPP           ON          [  1]    ***   
       SCF_MAXCYC           ISCFCY            150              cycles 
       SCF_NOSTOP           ISCFST         OFF         [  0]    ***   
       SCF_PRINT            ISCFPR              0               ***   
       SCF_PROG             ISCFPR         SCF         [  0]    ***   
       SD_FIELD             IFINSD              0             x 10-6  
       SOPERT               IPERSO         OFF         [  0]    ***   
       SPHERICAL            IDFGHI         ON          [  1]    ***   
       SPINORBIT            ISOCAL         OFF         [  0]    ***   
       SPINROTATIO          ISRCON         OFF         [  0]    ***   
       SPIN_FLIP            ISPFLP         OFF         [  0]    ***   
       SPIN_ORBIT           ISPORB         OFF         [  0]    ***   
       SPIN_SCAL            ISCSMP         OFF         [  0]    ***   
       STEEPSCALE           ISTPSC              1000          x 10-3  
       SUBGROUP             ISUBGP         DEFAULT     [  0]    ***   
       SUBGRPAXIS           ISBXYZ         X           [  0]    ***   
       SYMMETRY             ISYM           ON          [  0]    ***   
       SYM_CHECK            ISYMCK         OVERRIDE    [  1]    ***   
       T3_EXTRAPOL          IT3EXT         ON          [  1]    ***   
       T4_EXTRAPOL          IT4EXP         OFF         [  0]    ***   
       TAMP_SUM             IEVERY              5               ***   
       TESTSUITE            ITESTS         OFF         [  0]    ***   
       THERMOCH             ITHERM         OFF         [  0]    ***   
       TOL_CHOLESK          ITOLCH          10D-  4             ***   
       TRANGRAD             IRESRM         OFF         [  0]    ***   
       TRANS_INV            ITRAIN         USE         [  0]    ***   
       TREAT_PERT           ITREAT         SIMULTANEOUS[  0]    ***   
       TRIP_ALGORI          ITRALG         NORMAL      [  0]    ***   
       UIJ_THRESHO          IUIJTH              1               ***   
       UNITS                IUNITS         BOHR        [  1]    ***   
       UNOS                 IUNOS          OFF         [  0]    ***   
       UPDATE_HESS          IHUPDT         ON          [  1]    ***   
       VIBPHASE             ISETPH         STANDARD    [  0]    ***   
       VIBRATION            IVIB           NO          [  0]    ***   
       VIB_ALGORIT          IGEALG         STANDARD    [  0]    ***   
       VNATORB              IVNORB         OFF         [  0]    ***   
       VTRAN                IVTRAN         FULL/PARTIAL[  0]    ***   
       XFIELD               IXEFLD              0             x 10-6  
       XFORM_TOL            IXFTOL          10D- 11             ***   
       YFIELD               IYEFLD              0             x 10-6  
       ZFIELD               IZEFLD              0             x 10-6  
       ZSCALE_EXP           IZEXPS         OFF         [  0]    ***   
    -------------------------------------------------------------------
  @GETXYZ-I,     3 atoms read from ZMAT.
   Rotational constants (in cm-1): 
          9.4902686961            14.5740134783            27.2065789719
   Rotational constants (in MHz): 
     284511.1378075283        436917.9935688575        815632.8326432100
********************************************************************************
   The full molecular point group is C2v .
   The largest Abelian subgroup of the full molecular point group is C2v .
   The computational point group is C2v .
********************************************************************************


 ----------------------------------------------------------------
         Coordinates used in calculation (QCOMP) 
 ----------------------------------------------------------------
 Z-matrix   Atomic            Coordinates (in bohr)
  Symbol    Number           X              Y              Z
 ----------------------------------------------------------------
     O         8         0.00000000     0.00000000    -0.12442659
     H         1         0.00000000     1.43152878     0.98737016
     H         1         0.00000000    -1.43152878     0.98737016
 ----------------------------------------------------------------
 
   Interatomic distance matrix (Angstroms) 
 
                 O             H             H    
                [ 1]        [ 2]        [ 3]
  O    [ 1]     0.00000
  H    [ 2]     0.95916     0.00000
  H    [ 3]     0.95916     1.51506     0.00000
 rotcon2
   Rotational constants (in cm-1): 
          9.4902686961            27.2065789719            14.5740134783
   Rotational constants (in MHz): 
     284511.1378075283        815632.8326432100        436917.9935688575
  There is   1 frozen-core orbital.
  There are   92 basis functions.
 @GEOPT-W, Archive file not created for single-point calculation.
 @CHECKOUT-I, Total execution time (CPU/WALL):        0.17/       2.16 seconds.
--executable xjoda finished with status     0 in        2.78 seconds (walltime).
 --invoking executable--
/home/CEISAM/blondel-a/soft/cfour2.1/cfour2.1-serial-mkl/bin/xvmol
 SERIAL VERSION OF MOLECULE STARTED
********************************************************************************
                    INPUT FROM MOL FILE
********************************************************************************
INTGRL        1    0    1    0    0    0    0    0    0                         
         *** CFOUR Program System (Release V0.1) ***                            
Ketene -GS                                                                      
    2    2 X  Y       0.10E-08              0    0                              
   9999.00      3.00                                                            
          8.00000000    1    4    1    1    1    1                              
O #1   0.000000000000000   0.000000000000000  -0.124426592697155                
   11    5                                                                      
   15330.0000000000       5.080000000000000E-004 -1.150000000000000E-004        
  0.000000000000000E+000  0.000000000000000E+000  0.000000000000000E+000        
   2299.00000000000       3.929000000000000E-003 -8.950000000000000E-004        
  0.000000000000000E+000  0.000000000000000E+000  0.000000000000000E+000        
   522.400000000000       2.024300000000000E-002 -4.636000000000000E-003        
  0.000000000000000E+000  0.000000000000000E+000  0.000000000000000E+000        
   147.300000000000       7.918100000000000E-002 -1.872400000000000E-002        
  0.000000000000000E+000  0.000000000000000E+000  0.000000000000000E+000        
   47.5500000000000       0.230687000000000      -5.846300000000000E-002        
  0.000000000000000E+000  0.000000000000000E+000  0.000000000000000E+000        
   16.7600000000000       0.433118000000000      -0.136463000000000             
  0.000000000000000E+000  0.000000000000000E+000  0.000000000000000E+000        
   6.20700000000000       0.350260000000000      -0.175740000000000             
  0.000000000000000E+000  0.000000000000000E+000  0.000000000000000E+000        
   1.75200000000000       4.272800000000000E-002  0.160934000000000             
   1.00000000000000       0.000000000000000E+000  0.000000000000000E+000        
  0.688200000000000      -8.154000000000000E-003  0.603418000000000             
  0.000000000000000E+000  0.000000000000000E+000  0.000000000000000E+000        
  0.238400000000000       2.381000000000000E-003  0.378765000000000             
  0.000000000000000E+000   1.00000000000000       0.000000000000000E+000        
  7.376000000000001E-002  0.000000000000000E+000  0.000000000000000E+000        
  0.000000000000000E+000  0.000000000000000E+000   1.00000000000000             
    6    4                                                                      
   34.4600000000000       1.592800000000000E-002  0.000000000000000E+000        
  0.000000000000000E+000  0.000000000000000E+000                                
   7.74900000000000       9.974000000000000E-002  0.000000000000000E+000        
  0.000000000000000E+000  0.000000000000000E+000                                
   2.28000000000000       0.310492000000000       0.000000000000000E+000        
  0.000000000000000E+000  0.000000000000000E+000                                
  0.715600000000000       0.491026000000000        1.00000000000000             
  0.000000000000000E+000  0.000000000000000E+000                                
  0.214000000000000       0.336337000000000       0.000000000000000E+000        
   1.00000000000000       0.000000000000000E+000                                
  5.974000000000000E-002  0.000000000000000E+000  0.000000000000000E+000        
  0.000000000000000E+000   1.00000000000000                                     
    3    3                                                                      
   2.31400000000000        1.00000000000000       0.000000000000000E+000        
  0.000000000000000E+000                                                        
  0.645000000000000       0.000000000000000E+000   1.00000000000000             
  0.000000000000000E+000                                                        
  0.214000000000000       0.000000000000000E+000  0.000000000000000E+000        
   1.00000000000000                                                             
    2    2                                                                      
   1.42800000000000        1.00000000000000       0.000000000000000E+000        
  0.500000000000000       0.000000000000000E+000   1.00000000000000             
          1.00000000    1    3    1    1    1                                   
H #2   0.000000000000000   1.431528778600000   0.987370157902845                
    6    4                                                                      
   33.8700000000000       6.068000000000000E-003  0.000000000000000E+000        
  0.000000000000000E+000  0.000000000000000E+000                                
   5.09500000000000       4.530800000000000E-002  0.000000000000000E+000        
  0.000000000000000E+000  0.000000000000000E+000                                
   1.15900000000000       0.202822000000000       0.000000000000000E+000        
  0.000000000000000E+000  0.000000000000000E+000                                
  0.325800000000000       0.503903000000000        1.00000000000000             
  0.000000000000000E+000  0.000000000000000E+000                                
  0.102700000000000       0.383421000000000       0.000000000000000E+000        
   1.00000000000000       0.000000000000000E+000                                
  2.526000000000000E-002  0.000000000000000E+000  0.000000000000000E+000        
  0.000000000000000E+000   1.00000000000000                                     
    3    3                                                                      
   1.40700000000000        1.00000000000000       0.000000000000000E+000        
  0.000000000000000E+000                                                        
  0.388000000000000       0.000000000000000E+000   1.00000000000000             
  0.000000000000000E+000                                                        
  0.102000000000000       0.000000000000000E+000  0.000000000000000E+000        
   1.00000000000000                                                             
    2    2                                                                      
   1.05700000000000        1.00000000000000       0.000000000000000E+000        
  0.247000000000000       0.000000000000000E+000   1.00000000000000             
FINISH                                                                          
 
********************************************************************************
 ONE- AND TWO-ELECTRON INTEGRALS OVER SYMMETRY-ADAPTED AOS ARE CALCULATED.

  SPHERICAL HARMONICS ARE USED.
  
  INTEGRALS LESS THAN  0.10E-13 ARE NEGLECTED.

  NUCLEAR REPULSION ENERGY :    9.1765804707 A.U.
  @MOLECU-I, ONE ELECTRON INTEGRALS (CPU/WALL):        0.03/       0.06 SECONDS.
  @TWOEL-I,     262933 INTEGRALS OF SYMMETRY TYPE  I I I I
  @TWOEL-I,     865293 INTEGRALS OF SYMMETRY TYPE  I J I J
  @TWOEL-I,     466389 INTEGRALS OF SYMMETRY TYPE  I I J J
  @TWOEL-I,     575256 INTEGRALS OF SYMMETRY TYPE  I J K L
  @TWOEL-I, TOTAL NUMBER OF 2-E INTEGRALS    2169871.
  @MOLECU-I, TWO ELECTRON INTEGRALS (CPU/WALL):       18.92/       1.08 SECONDS.
 @CHECKOUT-I, Total execution time (CPU/WALL):       18.97/       1.17 seconds.

Running with 20 threads/proc

--executable xvmol finished with status     0 in        1.74 seconds (walltime).
 --invoking executable--
/home/CEISAM/blondel-a/soft/cfour2.1/cfour2.1-serial-mkl/bin/xvmol2ja
 @GETMEM-I,  Allocated  238418 MB of main memory.
 @CHECKOUT-I, Total execution time (CPU/WALL):        0.19/       0.07 seconds.
--executable xvmol2ja finished with status     0 in        1.03 seconds (walltime).
 --invoking executable--
/home/CEISAM/blondel-a/soft/cfour2.1/cfour2.1-serial-mkl/bin/xvscf
  There are   92 functions in the AO basis.

  There are 4 irreducible representations.

       Irrep        # of functions
         1                 35
         2                 18
         3                 27
         4                 12


  Parameters for SCF calculation: 
        SCF reference function:  RHF  
  Maximum number of iterations:  150
     Full symmetry point group: C2v 
     Computational point group: C2v 
        Initial density matrix: MOREAD                 
     SCF convergence tolerance: 10**(- 8)
  DIIS convergence acceleration:  ON
          Latest start for DIIS:   8
                     DIIS order:   6

  Memory information:     401180 words required.
  Fock matrices are constructed from AO integral file.
 @GETMEM-I,  Allocated       3 MB of main memory.
  Initialization and symmetry analysis required      0.003 seconds.

  @INITGES-I, Occupancies from core Hamiltonian:

          Alpha population by irrep:   3    1    1    0
           Beta population by irrep:   3    1    1    0


 total no. of electrons in initial guess :  0.000000000000000E+000
  --------------------------------------------------------------------
  Iteration         Total Energy            Largest Density Difference
  --------------------------------------------------------------------
       0             9.176580470691922              0.0000000000D+00
   current occupation vector 
     3  1  1  0
     3  1  1  0
       1           -61.321567078149734              0.1227179809D+02
   current occupation vector 
     3  1  1  0
     3  1  1  0
       2           -63.703478878135662              0.3388566478D+02
   current occupation vector 
     3  0  2  0
     3  0  2  0
       3           -70.945556070474098              0.3388588512D+02
   current occupation vector 
     3  1  1  0
     3  1  1  0
       4           -67.933049998589411              0.2854019866D+02
   current occupation vector 
     3  0  2  0
     3  0  2  0
       5           -72.333304653154727              0.2853969670D+02
   current occupation vector 
     3  1  1  0
     3  1  1  0
       6           -68.914822887955879              0.2669815983D+02
   current occupation vector 
     3  0  2  0
     3  0  2  0
       7           -72.705100216541965              0.2669837475D+02
   current occupation vector 
     3  1  1  0
     3  1  1  0
       8           -69.176648139040466              0.2626250513D+02
   current occupation vector 
     3  0  2  0
     3  0  2  0
       9           -75.826173496346200              0.2626348917D+02
   current occupation vector 
     3  1  1  0
     3  1  1  0
      10           -76.053721517722863              0.4680654876D+00
   current occupation vector 
     3  1  1  0
     3  1  1  0
      11           -76.060347202365534              0.6705681645D-01
   current occupation vector 
     3  1  1  0
     3  1  1  0
      12           -76.060455386100443              0.9994385577D-02
   current occupation vector 
     3  1  1  0
     3  1  1  0
      13           -76.060464827474902              0.3927110201D-02
   current occupation vector 
     3  1  1  0
     3  1  1  0
      14           -76.060466315635253              0.2205535115D-02
   current occupation vector 
     3  1  1  0
     3  1  1  0
      15           -76.060466331815647              0.2628798230D-03
   current occupation vector 
     3  1  1  0
     3  1  1  0
      16           -76.060466332028170              0.1420125098D-04
   current occupation vector 
     3  1  1  0
     3  1  1  0
      17           -76.060466332048492              0.7657480547D-05
   current occupation vector 
     3  1  1  0
     3  1  1  0
      18           -76.060466332048534              0.1820066419D-05
   current occupation vector 
     3  1  1  0
     3  1  1  0
      19           -76.060466332048762              0.3147259759D-06
   current occupation vector 
     3  1  1  0
     3  1  1  0
      20           -76.060466332049160              0.2341016819D-07
   current occupation vector 
     3  1  1  0
     3  1  1  0

  SCF has converged.

 Density matrix saved to file den.dat
 total electron number:   9.99999999999997     
     E(SCF)=       -76.060466332049302              0.4719836771D-08

  Eigenvector printing suppressed.

 @PUTMOS-I, Writing converged MOs to NEWMOS. 
 @PUTMOS-I, Symmetry   1 Full Blocks  8 Partial Blocksize   3
 @PUTMOS-I, Symmetry   2 Full Blocks  4 Partial Blocksize   2
 @PUTMOS-I, Symmetry   3 Full Blocks  6 Partial Blocksize   3
 @PUTMOS-I, Symmetry   4 Full Blocks  3 Partial Blocksize   0
 @PUTFOCK-I, Writing converged Fock matrix to NEWFOCK. 
 @PUTFOCK-I, Symmetry   1 Full Blocks  8 Partial Blocksize   3
 @PUTFOCK-I, Symmetry   2 Full Blocks  4 Partial Blocksize   2
 @PUTFOCK-I, Symmetry   3 Full Blocks  6 Partial Blocksize   3
 @PUTFOCK-I, Symmetry   4 Full Blocks  3 Partial Blocksize   0


 
  ORBITAL EIGENVALUES (ALPHA)  (1H = 27.2113834 eV)

       MO #        E(hartree)               E(eV)           FULLSYM    COMPSYM
       ----   --------------------   --------------------   -------   ---------
    1     1         -20.5676125085        -559.6731895916      A1        A1 (1)
    2     2          -1.3527399854         -36.8099263838      A1        A1 (1)
    3    54          -0.7164334547         -19.4951454167      B2        B2 (3)
    4     3          -0.5849370113         -15.9169452806      A1        A1 (1)
    5    36          -0.5102575293         -13.8848132617      B1        B1 (2)
  +++++++++++++++++++++++++++++++++++++++++++++++++++++++++++++++++++++++++++++
    6     4           0.0294082370           0.8002388111      A1        A1 (1)
    7    55           0.0476882064           1.2976620680      B2        B2 (3)
    8     5           0.1359281134           3.6987920099      A1        A1 (1)
    9    37           0.1586372239           4.3167383215      B1        B1 (2)
   10     6           0.1751861540           4.7670576030      A1        A1 (1)
   11    56           0.1830229305           4.9803071324      B2        B2 (3)
   12    57           0.2273956426           6.1877500151      B2        B2 (3)
   13     7           0.2449923924           6.6665819188      A1        A1 (1)
   14    81           0.2653260400           7.2198886008      A2        A2 (4)
   15    38           0.3003415504           8.1727090799      B1        B1 (2)
   16     8           0.3103486177           8.4450152242      A1        A1 (1)
   17    58           0.3658266327           9.9546487591      B2        B2 (3)
   18     9           0.4377884286          11.9128287796      A1        A1 (1)
   19    59           0.4664504196          12.6927612039      B2        B2 (3)
   20    60           0.5994562026          16.3120325609      B2        B2 (3)
   21    10           0.6584606771          17.9176259375      A1        A1 (1)
   22    11           0.7082091150          19.2713497545      A1        A1 (1)
   23    82           0.7224386780          19.6585558500      A2        A2 (4)
   24    39           0.7315957081          19.9077313068      B1        B1 (2)
   25    12           0.8310077736          22.6128711360      A1        A1 (1)
   26    40           0.8463600883          23.0306288584      B1        B1 (2)
   27    13           0.8916943287          24.2642362546      A1        A1 (1)
   28    61           0.9129301678          24.8420928136      B2        B2 (3)
   29    41           0.9183006186          24.9882302093      B1        B1 (2)
   30    83           0.9225173463          25.1029732023      A2        A2 (4)
   31    62           0.9308211839          25.3289321113      B2        B2 (3)
   32    14           0.9620330599          26.1782504370      A1        A1 (1)
   33    15           1.0217717909          27.8038239506      A1        A1 (1)
   34    63           1.0438971096          28.4058844803      B2        B2 (3)
   35    42           1.0828860963          29.4668287451      B1        B1 (2)
   36    64           1.1090787335          30.1795666380      B2        B2 (3)
   37    84           1.1764651281          32.0132436575      A2        A2 (4)
   38    16           1.1822083013          32.1695233444      A1        A1 (1)
   39    65           1.2601740692          34.2910797482      B2        B2 (3)
   40    85           1.5108806124          41.1131516154      A2        A2 (4)
   41    17           1.5362443663          41.8033344482      A1        A1 (1)
   42    43           1.5844218215          43.1143096511      B1        B1 (2)
   43    18           1.8038846134          49.0861958256      A1        A1 (1)
   44    66           1.8202169822          49.5306221745      B2        B2 (3)
   45    67           1.9872776647          54.0765744570      B2        B2 (3)
   46    19           2.1189047879          57.6583305723      A1        A1 (1)
   47    44           2.2626988830          61.5711668248      B1        B1 (2)
   48    86           2.3162322744          63.0278844615      A2        A2 (4)
   49    20           2.3260306897          63.2945128966      A1        A1 (1)
   50    21           2.4185797695          65.8129013919      A1        A1 (1)
   51    45           2.4206617744          65.8695556249      B1        B1 (2)
   52    68           2.4427504911          66.4706201642      B2        B2 (3)
   53    22           2.4790947805          67.4595985582      A1        A1 (1)
   54    69           2.6763116647          72.8261428068      B2        B2 (3)
   55    46           2.6976845994          73.4077299278      B1        B1 (2)
   56    23           2.7723483654          75.4394342895      A1        A1 (1)
   57    70           2.8178783750          76.6783688361      B2        B2 (3)
   58    87           2.8849385166          78.5031680600      A2        A2 (4)
   59    71           3.6549167086          99.4553398534      B2        B2 (3)
   60    24           3.7453741849         101.9168129218      A1        A1 (1)
   61    88           4.0183502679         109.3448697741      A2        A2 (4)
   62    47           4.0851536669         111.1626826788      B1        B1 (2)
   63    25           4.1673579200         113.3995741267      A1        A1 (1)
   64    72           4.2489778194         115.6205645027      B2        B2 (3)
   65    48           4.2905682719         116.7522982508      B1        B1 (2)
   66    26           4.3755642705         119.0651569555      A1        A1 (1)
   67    89           4.3781349482         119.1351086514      A2        A2 (4)
   68    49           4.4061973473         119.8987253534      B1        B1 (2)
   69    73           4.5175126392         122.9277684407      B2        B2 (3)
   70    27           4.7260617855         128.6026792175      A1        A1 (1)
   71    74           4.8467960754         131.8880262682      B2        B2 (3)
   72    75           5.1493122111         140.1199088216      B2        B2 (3)
   73    90           5.1537463471         140.2405677970      A2        A2 (4)
   74    76           5.2555073406         143.0096252073      B2        B2 (3)
   75    28           5.3305761623         145.0523516954      A1        A1 (1)
   76    50           5.5259567461         150.3689276696      B1        B1 (2)
   77    29           5.6676950376         154.2258226614      A1        A1 (1)
   78    30           6.1782230669         168.1179966051      A1        A1 (1)
   79    77           6.5135947674         177.2439245266      B2        B2 (3)
   80    51           6.7095266521         182.5755021637      B1        B1 (2)
   81    31           6.8989290368         187.7294030709      A1        A1 (1)
   82    52           7.1335562016         194.1139328066      B1        B1 (2)
   83    53           7.2529450774         197.3626692796      B1        B1 (2)
   84    78           7.3075036611         198.8472838188      B2        B2 (3)
   85    91           7.3151576649         199.0555598501      A2        A2 (4)
   86    32           7.3267277916         199.3703990046      A1        A1 (1)
   87    92           7.3557078218         200.1589857170      A2        A2 (4)
   88    33           7.5373093892         205.1006155952      A1        A1 (1)
   89    34           7.9023262488         215.0332293066      A1        A1 (1)
   90    79           7.9267699477         215.6983761709      B2        B2 (3)
   91    80           8.8081111944         239.6808907395      B2        B2 (3)
   92    35          15.7739096927         429.2299043652      A1        A1 (1)


  VSCF finished.

 @CHECKOUT-I, Total execution time (CPU/WALL):        4.95/       0.75 seconds.
--executable xvscf finished with status     0 in        1.31 seconds (walltime).
 --invoking executable--
/home/CEISAM/blondel-a/soft/cfour2.1/cfour2.1-serial-mkl/bin/xvtran
 @GETMEM-I,  Allocated  238418 MB of main memory.
  Full RHF integral transformation
  The following   1 MOs will be dropped:
    1
  There are  91 active molecular orbitals.
  Transformation of IIII integrals :
  1 pass through the AO integral file was required.
      262933 AO integrals were read.
      266728 MO integrals were written to HF2.
  Transformation of IIJJ integrals :
  1 pass through the AO integral file was required.
      466389 AO integrals were read.
      480525 MO integrals were written to HF2.
  Transformation of IJIJ integrals :
  1 pass through the AO integral file was required.
      865293 AO integrals were read.
      887262 MO integrals were written to HF2.
  Transformation of IJKL integrals :
  1 pass through the AO integral file was required.
      575256 AO integrals were read.
      594864 MO integrals were written to HF2.
  Summary of active molecular orbitals: 
------------------------------------------------------------------------
 
  Index      Eigenvalue    Symmetry    Index      Eigenvalue    Symmetry
------------------------------------------------------------------------
     1        -1.3527400        1        47         4.0851537        2
     2        -0.5849370        1        48         4.2905683        2
     3        -0.5102575        2        49         4.4061973        2
     4        -0.7164335        3        50         5.5259567        2
     5         0.0294082        1        51         6.7095267        2
     6         0.1359281        1        52         7.1335562        2
     7         0.1751862        1        53         7.2529451        2
     8         0.2449924        1        54         0.0476882        3
     9         0.3103486        1        55         0.1830229        3
    10         0.4377884        1        56         0.2273956        3
    11         0.6584607        1        57         0.3658266        3
    12         0.7082091        1        58         0.4664504        3
    13         0.8310078        1        59         0.5994562        3
    14         0.8916943        1        60         0.9129302        3
    15         0.9620331        1        61         0.9308212        3
    16         1.0217718        1        62         1.0438971        3
    17         1.1822083        1        63         1.1090787        3
    18         1.5362444        1        64         1.2601741        3
    19         1.8038846        1        65         1.8202170        3
    20         2.1189048        1        66         1.9872777        3
    21         2.3260307        1        67         2.4427505        3
    22         2.4185798        1        68         2.6763117        3
    23         2.4790948        1        69         2.8178784        3
    24         2.7723484        1        70         3.6549167        3
    25         3.7453742        1        71         4.2489778        3
    26         4.1673579        1        72         4.5175126        3
    27         4.3755643        1        73         4.8467961        3
    28         4.7260618        1        74         5.1493122        3
    29         5.3305762        1        75         5.2555073        3
    30         5.6676950        1        76         6.5135948        3
    31         6.1782231        1        77         7.3075037        3
    32         6.8989290        1        78         7.9267699        3
    33         7.3267278        1        79         8.8081112        3
    34         7.5373094        1        80         0.2653260        4
    35         7.9023262        1        81         0.7224387        4
    36        15.7739097        1        82         0.9225173        4
    37         0.1586372        2        83         1.1764651        4
    38         0.3003416        2        84         1.5108806        4
    39         0.7315957        2        85         2.3162323        4
    40         0.8463601        2        86         2.8849385        4
    41         0.9183006        2        87         4.0183503        4
    42         1.0828861        2        88         4.3781349        4
    43         1.5844218        2        89         5.1537463        4
    44         2.2626989        2        90         7.3151577        4
    45         2.4206618        2        91         7.3557078        4
    46         2.6976846        2
------------------------------------------------------------------------
  -1.35273998542035      -0.584937011344914      -0.510257529269556     
 -0.716433454709381       2.940823696395435E-002  0.135928113447371     
  0.175186154003312       0.244992392367224       0.310348617709394     
  0.437788428633743       0.658460677066718       0.708209114958843     
  0.831007773605772       0.891694328727026       0.962033059922478     
   1.02177179094221        1.18220830126709        1.53624436632707     
   1.80388461343561        2.11890478792392        2.32603068966315     
   2.41857976952036        2.47909478053864        2.77234836541037     
   3.74537418490244        4.16735792002139        4.37556427048479     
   4.72606178550615        5.33057616230626        5.66769503756319     
   6.17822306693477        6.89892903684055        7.32672779159712     
   7.53730938924599        7.90232624875047        15.7739096927076     
  0.158637223916077       0.300341550438807       0.731595708094910     
  0.846360088345000       0.918300618605234        1.08288609630713     
   1.58442182146017        2.26269888302575        2.42066177439810     
   2.69768459944434        4.08515366693231        4.29056827191031     
   4.40619734729979        5.52595674608880        6.70952665213302     
   7.13355620157934        7.25294507737345       4.768820640063321E-002
  0.183022930484945       0.227395642628662       0.365826632655477     
  0.466450419566817       0.599456202614666       0.912930167807126     
  0.930821183876031        1.04389710962909        1.10907873349729     
   1.26017406921709        1.82021698222369        1.98727766472279     
   2.44275049111416        2.67631166472832        2.81787837497905     
   3.65491670862171        4.24897781943448        4.51751263923982     
   4.84679607535903        5.14931221106398        5.25550734062785     
   6.51359476735025        7.30750366108743        7.92676994771667     
   8.80811119435868       0.265326040014813       0.722438677999944     
  0.922517346262240        1.17646512810043        1.51088061239183     
   2.31623227437525        2.88493851657570        4.01835026785637     
   4.37813494816473        5.15374634708969        7.31515766486684     
   7.35570782178490     
 @CHECKOUT-I, Total execution time (CPU/WALL):       10.09/       0.70 seconds.
--executable xvtran finished with status     0 in        1.67 seconds (walltime).
 --invoking executable--
/home/CEISAM/blondel-a/soft/cfour2.1/cfour2.1-serial-mkl/bin/xintprc
 @GETMEM-I,  Allocated  238418 MB of main memory.
  @GMOIAA-I, Processing MO integrals for spin case AA.
  @GMOIAA-I, Generation of integral list completed.
                      TYPE                NUMBER
                      ----               --------
                      PPPP               1862118
                      PPPH                340336
                      PPHH                 15793
                      PHPH                 10160
                      PHHH                   950
                      HHHH                    22

                     TOTAL               2229379

  @FORMT2-I, Second-order MP correlation energies:
            ------------------------------------------------
            E(SCF)                  =    -76.060466332049 a.u.
            E2(AA)                  =     -0.032587552856 a.u.
            E2(AB)                  =     -0.203341492940 a.u.
            E2(TOT)                 =     -0.268516598652 a.u.
            Total MP2 energy        =    -76.328982930701 a.u.
            ------------------------------------------------
   Largest T2 amplitudes for spin case AB:
       _       _                 _       _                 _       _
   i   j   a   b             i   j   a   b             i   j   a   b
-----------------------------------------------------------------------------
[  4   4  58  58]-0.01957 [  2   2  14  14]-0.01876 [  3   3  42  42]-0.01508
[  4   4  62  58]-0.01385 [  4   4  58  62]-0.01385 [  2   4  14  58] 0.01346
[  4   2  58  14] 0.01346 [  4   4  59  59]-0.01310 [  3   3  41  41]-0.01301
[  2   2  59  59]-0.01260 [  4   4  62  62]-0.01218 [  3   3  42  41]-0.01189
[  3   3  41  42]-0.01189 [  2   3  14  41] 0.01185 [  3   2  41  14] 0.01185
-----------------------------------------------------------------------------
   Norm of T2AB vector (    31238 symmetry allowed elements):  0.2173862521.
-----------------------------------------------------------------------------
 @CHECKOUT-I, Total execution time (CPU/WALL):        5.98/       0.61 seconds.
--executable xintprc finished with status     0 in        1.16 seconds (walltime).
  calling xncc 
 --invoking executable--
/home/CEISAM/blondel-a/soft/cfour2.1/cfour2.1-serial-mkl/bin/xncc
 @GETMEM-I,  Allocated       7 MB of main memory.

Running with 20 threads/proc

Following the lowest-energy eigenvector.
Using a partitioned Davidson procedure.
Using discrete restarting.
Using an orthogonal subspace.
Orthogonalizing against previous roots.
Using Modified Gram-Schmidt orthogonalization.

Using DIIS to accelerate the convergence of T1 and T2
Using DIIS to accelerate the convergence of T3
Using immediate high-order contributions
Performing 2 CCSDT sub-iterations
Damping factor for T3: 0.000000
Damping factor for T4: 0.000000

Transposes are coarse-threaded

Memory limit:                232.831 GiB
Minimum memory requirement:  226.878 MiB
Compromise memory amount:      3.962 GiB
Optimal memory requirement:    6.227 GiB

List              Location   Size        Cached Hunks Est. Disk I/O
----------------- ---------- ----------- ------ ----- -------------

           HR_DAV      470:1    7.413 MiB    Yes     -    14.808 GiB
                R        471  948.844 KiB    Yes     -    83.394 MiB
            R_DAV      470:0    7.413 MiB    Yes     -    26.925 GiB
           T_DIIS       70:0    1.196 MiB    Yes     -    21.523 MiB
           Z_DIIS       70:1    1.196 MiB    Yes     -    35.872 MiB
          <AI|bj>         18  244.047 KiB    Yes     -    44.208 MiB
          <Ab|Cd>        233  110.649 MiB    Yes     -   358.959 GiB
          <Ab|Ci>         30    5.122 MiB    Yes     -    19.353 GiB
          <Ab|Ij>         16  244.047 KiB    Yes     -     1.023 GiB
          <Ai|Bj>         25  244.047 KiB    Yes     -    40.277 MiB
          <Aj|bI>         21  244.047 KiB     No     -         0   B
          <Ij|Ka>         10   11.500 KiB    Yes     -    59.428 MiB
          <Ij|Kl>         13      576   B    Yes     -    43.875 KiB
           DD(AI)      448:8      856   B    Yes     -    43.500 KiB
        DD(Ab,Ij)        450  244.047 KiB    Yes     -    14.783 MiB
            F(EA)       92:0   16.664 KiB    Yes     -    14.467 MiB
            F(EM)       93:0      856   B    Yes     -   819.219 KiB
            F(MI)       91:0       48   B    Yes     -    53.625 KiB
           HR(AI)      490:2      856   B    Yes     -     2.987 MiB
        HR(Ab,Ij)        463  244.047 KiB    Yes     -     1.763 GiB
            Q(AI)      190:2      856   B    Yes     -   300.938 KiB
         Q(Ab,Ij)         50  244.047 KiB    Yes     -   364.640 MiB
        QQ(Ab,Ij)          3  244.047 KiB    Yes     -    54.545 MiB
            R(AI)      490:0      856   B    Yes     -     7.022 MiB
         R(Ab,Ij)        446  244.047 KiB    Yes     -     2.863 GiB
            T(AI)       90:0      856   B    Yes     -     2.005 MiB
         T(Ab,Ij)         46  244.047 KiB    Yes     -     1.414 GiB
         W(Mn,Ij)         53      576   B    Yes     -   524.250 KiB
        W~(Ab,Ej)        130    5.122 MiB    Yes     -    11.390 GiB
        W~(EM,bj)         56  244.047 KiB    Yes     -   395.385 MiB
        W~(Em,Bj)         58  244.047 KiB    Yes     -   491.907 MiB
        W~(Ij,Mb)        110   11.500 KiB    Yes     -    16.703 MiB
       W~~(Ab,Ef)         33  110.649 MiB    Yes     -     7.132 GiB
       W~~(Ab,Ej)        169    5.122 MiB    Yes     -    10.454 GiB
       W~~(EM,bj)         76  244.047 KiB    Yes     -   139.660 MiB
       W~~(Em,Bj)         78  244.047 KiB    Yes     -   139.660 MiB
       W~~(Ij,Mb)        165   11.500 KiB    Yes     -    52.970 MiB
       W~~(Mn,Ij)        153      576   B    Yes     -    36.562 KiB
         X(Ab,Ef)        433  110.649 MiB    Yes     -   179.274 GiB
         X(Ab,Ej)        430    5.122 MiB    Yes     -    13.247 GiB
         X(Ab,Ij)        416  244.047 KiB     No     -         0   B
            X(EA)      492:0   16.664 KiB    Yes     -     9.528 MiB
            X(EM)      493:0      856   B    Yes     -   407.812 KiB
         X(EM,bj)        418  244.047 KiB    Yes     -   207.889 MiB
         X(Ef,Am)        469    5.122 MiB    Yes     -     3.827 GiB
         X(Em,Bj)        425  244.047 KiB    Yes     -   263.326 MiB
         X(Ij,Mb)        410   11.500 KiB    Yes     -    38.710 MiB
            X(MI)      491:0       48   B    Yes     -    24.375 KiB
         X(Mn,Ie)        465   11.500 KiB    Yes     -    22.143 MiB
         X(Mn,Ij)        413      576   B    Yes     -   360.000 KiB
            Z(AI)       90:2      856   B    Yes     -   300.938 KiB
         Z(Ab,Ij)         63  244.047 KiB    Yes     -    85.798 MiB
      HR(abc,ijk)    HR3FILE   20.292 MiB    Yes     1    56.520 GiB
    HR(abcd,ijkl)          -    2.034 GiB     No     1         0   B
            HR3_1      HR3_1   20.292 MiB    Yes     1    56.834 GiB
           HR3_10     HR3_10   20.292 MiB    Yes     1    64.998 GiB
           HR3_11     HR3_11   20.292 MiB    Yes     1    60.837 GiB
           HR3_12     HR3_12   20.292 MiB    Yes     1    62.015 GiB
           HR3_13     HR3_13   20.292 MiB    Yes     1    63.192 GiB
           HR3_14     HR3_14   20.292 MiB    Yes     1    64.370 GiB
           HR3_15     HR3_15   20.292 MiB    Yes     1    65.547 GiB
           HR3_16     HR3_16   20.292 MiB    Yes     1    66.725 GiB
           HR3_17     HR3_17   20.292 MiB    Yes     1    67.902 GiB
           HR3_18     HR3_18   20.292 MiB    Yes     1    69.080 GiB
           HR3_19     HR3_19   20.292 MiB    Yes     1    70.257 GiB
            HR3_2      HR3_2   20.292 MiB    Yes     1    55.735 GiB
           HR3_20     HR3_20   20.292 MiB    Yes     1    71.435 GiB
           HR3_21     HR3_21   20.292 MiB    Yes     1     3.218 GiB
           HR3_22     HR3_22   20.292 MiB    Yes     1     3.218 GiB
           HR3_23     HR3_23   20.292 MiB    Yes     1     3.218 GiB
           HR3_24     HR3_24   20.292 MiB    Yes     1     3.218 GiB
           HR3_25     HR3_25   20.292 MiB    Yes     1     3.218 GiB
           HR3_26     HR3_26   20.292 MiB    Yes     1     3.218 GiB
           HR3_27     HR3_27   20.292 MiB    Yes     1     3.218 GiB
           HR3_28     HR3_28   20.292 MiB    Yes     1     3.218 GiB
           HR3_29     HR3_29   20.292 MiB    Yes     1     3.218 GiB
            HR3_3      HR3_3   20.292 MiB    Yes     1    56.991 GiB
           HR3_30     HR3_30   20.292 MiB    Yes     1     3.218 GiB
           HR3_31     HR3_31   20.292 MiB     No     1         0   B
            HR3_4      HR3_4   20.292 MiB    Yes     1    58.247 GiB
            HR3_5      HR3_5   20.292 MiB    Yes     1    59.503 GiB
            HR3_6      HR3_6   20.292 MiB    Yes     1    60.759 GiB
            HR3_7      HR3_7   20.292 MiB    Yes     1    62.015 GiB
            HR3_8      HR3_8   20.292 MiB    Yes     1    63.271 GiB
            HR3_9      HR3_9   20.292 MiB    Yes     1    64.527 GiB
       Q(abc,ijk)     Q3FILE   20.292 MiB    Yes     1     1.189 GiB
       R(abc,ijk)     R3FILE   20.292 MiB    Yes     1   135.412 GiB
             R3_1       R3_1   20.292 MiB    Yes     1   107.859 GiB
            R3_10      R3_10   20.292 MiB    Yes     1   116.023 GiB
            R3_11      R3_11   20.292 MiB    Yes     1   110.292 GiB
            R3_12      R3_12   20.292 MiB    Yes     1   111.470 GiB
            R3_13      R3_13   20.292 MiB    Yes     1   112.647 GiB
            R3_14      R3_14   20.292 MiB    Yes     1   113.825 GiB
            R3_15      R3_15   20.292 MiB    Yes     1   115.002 GiB
            R3_16      R3_16   20.292 MiB    Yes     1   116.180 GiB
            R3_17      R3_17   20.292 MiB    Yes     1   117.357 GiB
            R3_18      R3_18   20.292 MiB    Yes     1   118.535 GiB
            R3_19      R3_19   20.292 MiB    Yes     1   119.712 GiB
           R3_1_1     R3_1_1   20.292 MiB    Yes     1     1.486 GiB
             R3_2       R3_2   20.292 MiB    Yes     1   106.760 GiB
            R3_20      R3_20   20.292 MiB    Yes     1   118.535 GiB
            R3_21      R3_21   20.292 MiB    Yes     1     3.218 GiB
            R3_22      R3_22   20.292 MiB    Yes     1     3.218 GiB
            R3_23      R3_23   20.292 MiB    Yes     1     3.218 GiB
            R3_24      R3_24   20.292 MiB    Yes     1     3.218 GiB
            R3_25      R3_25   20.292 MiB    Yes     1     3.218 GiB
            R3_26      R3_26   20.292 MiB    Yes     1     3.218 GiB
            R3_27      R3_27   20.292 MiB    Yes     1     3.218 GiB
            R3_28      R3_28   20.292 MiB    Yes     1     3.218 GiB
            R3_29      R3_29   20.292 MiB    Yes     1     3.218 GiB
           R3_2_1     R3_2_1   19.920 MiB    Yes     1     1.459 GiB
             R3_3       R3_3   20.292 MiB    Yes     1   108.016 GiB
            R3_30      R3_30   20.292 MiB    Yes     1     3.218 GiB
            R3_31      R3_31   20.292 MiB     No     1         0   B
           R3_3_1     R3_3_1   20.272 MiB    Yes     1     1.485 GiB
             R3_4       R3_4   20.292 MiB    Yes     1   109.272 GiB
           R3_4_1     R3_4_1   19.900 MiB    Yes     1     1.457 GiB
             R3_5       R3_5   20.292 MiB    Yes     1   110.528 GiB
             R3_6       R3_6   20.292 MiB    Yes     1   111.784 GiB
             R3_7       R3_7   20.292 MiB    Yes     1   113.040 GiB
             R3_8       R3_8   20.292 MiB    Yes     1   114.296 GiB
             R3_9       R3_9   20.292 MiB    Yes     1   115.552 GiB
       T(abc,ijk)     T3FILE   20.292 MiB    Yes     1     7.154 GiB
     T(abcd,ijkl)          -    2.034 GiB     No     1         0   B
             T3_1       T3_1   20.292 MiB    Yes     1   608.764 MiB
             T3_2       T3_2   20.292 MiB    Yes     1   304.382 MiB
             T3_3       T3_3   20.292 MiB    Yes     1   304.382 MiB
             T3_4       T3_4   20.292 MiB    Yes     1   304.382 MiB
             T3_5       T3_5   20.292 MiB    Yes     1   304.382 MiB
       W(abc,ije)    WABCIJE    1.072 GiB    Yes     1   161.945 GiB
       W(abm,ijk)    WABMIJK    2.339 MiB    Yes     1   353.224 MiB
       X(abc,ije)    XABCIJE    1.072 GiB    Yes     1   128.053 GiB
       X(abm,ijk)    XABMIJK    2.339 MiB    Yes     1   277.185 MiB
       X(mnd,jkl)    XMNDJKL  111.250 KiB     No     1         0   B
       Z(abc,ijk)     Z3FILE   20.292 MiB    Yes     1     3.270 GiB
     Z(abcd,ijkl)          -    2.034 GiB     No     1         0   B
             Z3_1       Z3_1   20.292 MiB    Yes     1   608.764 MiB
             Z3_2       Z3_2   20.292 MiB    Yes     1   608.764 MiB
             Z3_3       Z3_3   20.292 MiB    Yes     1   608.764 MiB
             Z3_4       Z3_4   20.292 MiB    Yes     1   608.764 MiB
             Z3_5       Z3_5   20.292 MiB    Yes     1   608.764 MiB

Simulation and memory analysis took 5.848 seconds

MP2 correlation energy:  -0.268516598651546

Non-iterative calculation of MP2 took 0.067 cpu seconds and 0.003 walltime seconds at 0.405 Gflops/sec

Total MP2 energy: -76.328982930700846

Beginning iterative solution of CC4 equations:

It.  Correlation Energy T1 Residual T2 Residual T3 Residual CPU Time (s) Walltime (s)
-------------------------------------------------------------------------------------
  1  -0.281750588530372 1.26102e-03 4.73226e-04 2.53375e-04     1663.966      140.901
  2  -0.282262743942431 1.23942e-04 6.04032e-05 4.72048e-05     1642.820      139.702
  3  -0.282302864994991 9.53262e-06 2.87358e-06 8.88625e-06     1654.077      139.741
  4  -0.282302028721985 2.90830e-06 4.57637e-07 1.31348e-06     1613.869      136.849
  5  -0.282301713326031 3.41348e-07 3.51404e-08 2.13848e-07     1616.999      138.298

   A    I                     A    I                     A    I                  
-------------------------- -------------------------- -------------------------- 
   9    5 -0.0139112587028   62    5  0.0039062664169   34    3  0.0031137702111 
  15    5 -0.0120694323404   26    5 -0.0035969125932   46    4 -0.0029325813121 
   8    4  0.0081105691294   71    3  0.0034040256300   24    5  0.0028565199882 
  16    4 -0.0072839251302   70    4  0.0031473967450   29    5 -0.0025729041154 
  45    3  0.0049553709014    6    4 -0.0031317931045   27    2 -0.0025715832487 

   A    B    I    J                     A    B    I    J                  
------------------------------------ ------------------------------------ 
  19   19    3    3 -0.0224191705140   34   34    3    3 -0.0136461009203 
  27   27    4    4 -0.0206568584285    9    9    5    5 -0.0135521317082 
  34   19    3    3 -0.0160275185108   27   19    4    3  0.0135470585341 
  19   34    3    3 -0.0160275185108   19   27    3    4  0.0135470585341 
  35   35    5    5 -0.0159874142717   35   29    5    5 -0.0130781594375 
  20   20    3    3 -0.0155784858115   29   35    5    5 -0.0130781594375 
  20   20    4    4 -0.0147877671381   27   16    4    4  0.0130257173436 
  29   29    5    5 -0.0139404171821 

It.  Correlation Energy T1 Residual T2 Residual T3 Residual CPU Time (s) Walltime (s)
-------------------------------------------------------------------------------------
  6  -0.282301693136590 4.82169e-08 5.60626e-09 2.94787e-08     1612.778      136.714

CC4 iterations converged in 6 cycles and 832.204 seconds (138.701 s/it.) at 2.756 Gflops/sec

Total CC4 energy: -76.342768025185890

             _
Formation of H took 1.236 seconds at 19.634 Gflops/sec

Searching for 1 roots in irrep 1

EOMEE-CCSD guess vector:

   A    I                  
-------------------------- 
   6    4  1.0000000000000 

Beginning iterative solution of EOMEE-CC4 equations:

It.  Correlation Energy R1 Residual R2 Residual R3 Residual CPU Time (s) Walltime (s)
-------------------------------------------------------------------------------------
  1   0.531520479555790 3.24997e-02 7.29740e-02 2.66908e-03     3694.706      290.292
  2   0.436832610412267 8.13113e-02 2.85062e-02 3.98965e-03     3692.268      291.221
  3   0.388305529885403 2.08552e-02 9.38964e-03 5.32627e-03     3666.646      288.534
  4   0.385153342117552 2.88245e-02 5.23622e-03 4.00610e-03     3708.277      292.126
  5   0.374033404385202 7.30037e-03 6.78683e-03 2.66032e-03     3673.293      289.661
  6   0.367363108262670 4.50127e-03 2.36287e-03 9.11784e-04     3688.333      290.526
  7   0.367322150584614 4.00252e-03 2.26474e-03 3.38341e-04     3694.426      291.059
  8   0.367387139658158 3.16098e-03 1.63769e-03 2.68637e-04     3709.468      290.131
  9   0.366963404838640 2.13165e-03 1.57538e-03 2.54583e-04     3746.557      293.121
 10   0.366866940129967 1.26110e-03 1.06400e-03 1.88346e-04     3797.536      295.987
 11   0.367010564742731 4.89686e-04 6.52220e-04 1.02974e-04     3770.984      294.811
Locking on root: 0.367019034059135
 12   0.367019034059135 3.14519e-04 4.13727e-04 6.25151e-05     3776.390      294.899
 13   0.366969127617762 1.54314e-04 2.19513e-04 3.46859e-05     3819.033      296.567
 14   0.366965507819146 6.12155e-05 1.04859e-04 1.71876e-05     3825.334      297.852
 15   0.366975744534642 4.09203e-05 4.73045e-05 7.99792e-06     3869.094      300.250
 16   0.366974513747754 2.05802e-05 1.98536e-05 3.27750e-06     3867.214      299.645
 17   0.366971398526022 9.11649e-06 9.06206e-06 1.46109e-06     3904.757      301.552

EOMEE-CC4 iterations converged in 17 cycles and 4998.235 seconds (294.014 s/it.) at 2.712 Gflops/sec

EOMEE-CC4 excitation energy:   0.366971398526019 (  9.985799422125691 eV)
Total EOMEE-CC4 energy:      -75.975796626659871

Converged root:

   A    I                     A    I                     A    I                  
-------------------------- -------------------------- -------------------------- 
   6    4 -0.5510119403706   15    5  0.0466988925405   29    5  0.0119138480430 
  10    4  0.2612059520840   33    4 -0.0249118642122   19    3  0.0118340741996 
   8    4  0.2333866721880    6    2  0.0200283945319   26    5  0.0118157979154 
   9    5  0.1151648851064   10    2 -0.0148346501564   35    5  0.0113188753176 
  18    4  0.1150927226201   25    4  0.0119896563517   32    4 -0.0108766549059 

   A    B    I    J                     A    B    I    J                  
------------------------------------ ------------------------------------ 
   8    6    4    4  0.0492221012518    9    6    5    4 -0.0380472008453 
   6    8    4    4  0.0492221012518    6    9    4    5 -0.0380472008453 
  16    6    4    4 -0.0422694172094    8    8    4    4 -0.0352876876430 
   6   16    4    4 -0.0422694172094   15    6    5    4 -0.0318020738227 
  27    6    4    4  0.0408658447882    6   15    4    5 -0.0318020738227 
   6   27    4    4  0.0408658447882    6   11    4    3 -0.0286772674516 
  19    6    3    4 -0.0380989892667   11    6    3    4 -0.0286772674516 
   6   19    4    3 -0.0380989892667 

Searching for 1 roots in irrep 2

EOMEE-CCSD guess vector:

   A    I                  
-------------------------- 
   6    5  1.0000000000000 

Beginning iterative solution of EOMEE-CC4 equations:

It.  Correlation Energy R1 Residual R2 Residual R3 Residual CPU Time (s) Walltime (s)
-------------------------------------------------------------------------------------
  1   0.452772110345743 3.17355e-02 6.02263e-02 2.20319e-03     3624.927      285.565
  2   0.353999901653379 7.79913e-02 3.58780e-02 4.51004e-03     3626.181      287.452
  3   0.303119378351687 2.14820e-02 1.21588e-02 5.61760e-03     3624.764      285.505
  4   0.298934117048869 3.06461e-02 7.86846e-03 4.16883e-03     3610.740      285.438
  5   0.287196661807435 8.71838e-03 9.98766e-03 2.55483e-03     3635.332      286.313
  6   0.280279770373229 3.06973e-03 1.56446e-03 7.91495e-04     3652.293      286.221
Locking on root: 0.280285028931796
  7   0.280285028931796 1.77026e-03 9.41511e-04 3.08911e-04     3629.531      287.904
  8   0.280320915480603 1.08291e-03 5.14122e-04 1.18127e-04     3693.275      290.348
  9   0.280124754058568 4.42736e-04 3.31385e-04 7.53744e-05     3687.401      289.980
 10   0.280121619721251 2.39917e-04 1.92277e-04 3.55715e-05     3697.005      289.490
 11   0.280156554756513 1.51258e-04 8.59752e-05 1.78818e-05     3723.097      291.246
 12   0.280159026109215 6.27155e-05 4.50816e-05 9.85135e-06     3714.588      290.895
 13   0.280153183581225 2.77323e-05 2.18436e-05 5.41593e-06     3738.764      292.359
 14   0.280154874463855 1.79325e-05 1.00938e-05 2.39293e-06     3766.754      293.102
 15   0.280156211381673 9.13808e-06 5.18209e-06 1.14177e-06     3827.257      296.504

EOMEE-CC4 iterations converged in 15 cycles and 4338.324 seconds (289.222 s/it.) at 2.595 Gflops/sec

EOMEE-CC4 excitation energy:   0.280156211381666 (  7.623438079797952 eV)
Total EOMEE-CC4 energy:      -76.062611813804224

Converged root:

   A    I                     A    I                     A    I                  
-------------------------- -------------------------- -------------------------- 
   6    5  0.5497600358221   16    5  0.0252541670112   50    5 -0.0076443378547 
   8    5 -0.2719661036702   25    5 -0.0144283318966    9    4 -0.0065720386753 
  10    5 -0.2498667871745   32    5  0.0138073050044    9    2  0.0046333638019 
  18    5 -0.1299341177342   27    5 -0.0136196291613   46    5 -0.0046255970305 
  33    5  0.0285121901614   22    5 -0.0076629079546   15    2  0.0040510416234 

   A    B    I    J                     A    B    I    J                  
------------------------------------ ------------------------------------ 
   9    6    5    5  0.0515310284819   29    6    5    5  0.0336314411817 
   6    9    5    5  0.0515310284819    6   29    5    5  0.0336314411817 
  15    6    5    5  0.0407640509504    6   16    5    4  0.0312636908627 
   6   15    5    5  0.0407640509504   16    6    4    5  0.0312636908627 
   6   19    5    3  0.0397348682289    6   27    5    4 -0.0302103828072 
  19    6    3    5  0.0397348682289   27    6    4    5 -0.0302103828072 
   6    8    5    4 -0.0359067644410   11    6    3    5  0.0300042726368 
   8    6    4    5 -0.0359067644410 

Searching for 1 roots in irrep 3

EOMEE-CCSD guess vector:

   A    I                  
-------------------------- 
   7    4  1.0000000000000 

Beginning iterative solution of EOMEE-CC4 equations:

It.  Correlation Energy R1 Residual R2 Residual R3 Residual CPU Time (s) Walltime (s)
-------------------------------------------------------------------------------------
  1   0.580248131853517 2.90196e-02 7.35856e-02 2.73309e-03     3682.137      289.694
  2   0.486699078438447 8.00536e-02 2.80487e-02 4.09160e-03     3662.844      288.998
  3   0.447239279081704 2.35784e-02 7.52654e-03 5.72249e-03     3636.017      287.644
  4   0.448258504902176 3.54926e-02 6.07809e-03 3.71951e-03     3667.555      289.990
  5   0.439816193395855 9.54108e-03 7.83700e-03 2.82097e-03     3656.518      288.063
  6   0.431933168136883 4.16942e-03 2.53862e-03 1.20326e-03     3723.300      292.824
Locking on root: 0.431974043440646
  7   0.431974043440646 3.29262e-03 2.28103e-03 4.49261e-04     3668.424      288.637
  8   0.432013610087722 2.26566e-03 1.43908e-03 2.58966e-04     3709.230      291.940
  9   0.431617402205746 1.30257e-03 1.22385e-03 1.88907e-04     3726.738      292.498
 10   0.431531852145773 7.66365e-04 8.01552e-04 1.26198e-04     3739.497      293.078
 11   0.431636253652133 4.79755e-04 4.18274e-04 8.34932e-05     3727.274      291.778
 12   0.431652523196010 3.26834e-04 2.01169e-04 5.05382e-05     3741.778      293.333
 13   0.431622476503525 2.27664e-04 9.31135e-05 2.01277e-05     3831.057      296.691
 14   0.431619805100553 1.31132e-04 5.00486e-05 1.09751e-05     3786.624      294.572
 15   0.431636400861661 6.86979e-05 3.95004e-05 1.17546e-05     3827.823      298.464
 16   0.431632108600526 2.40289e-05 1.83190e-05 5.47807e-06     3846.428      299.140
 17   0.431626755069600 1.17139e-05 9.38116e-06 2.76018e-06     3863.346      299.038
 18   0.431627761045740 9.15033e-06 5.32959e-06 8.63200e-07     3860.710      298.643

EOMEE-CC4 iterations converged in 18 cycles and 5275.028 seconds (293.057 s/it.) at 2.617 Gflops/sec

EOMEE-CC4 excitation energy:   0.431627761045746 ( 11.745188491899384 eV)
Total EOMEE-CC4 energy:      -75.911140264140144

Converged root:

   A    I                     A    I                     A    I                  
-------------------------- -------------------------- -------------------------- 
   7    4  0.5645433524465   34    4  0.0254902831578   17    4  0.0132333309638 
  11    4  0.3204365080675    7    2 -0.0170695407879   39    4  0.0112721768797 
  12    4  0.1363053279562   31    4  0.0155861756751   28    4  0.0101537784988 
  19    4  0.1168113084628   23    5 -0.0150532502352   21    3  0.0094400003034 
  14    5 -0.0397660387292   20    4  0.0150134843239   11    2 -0.0077599066567 

   A    B    I    J                     A    B    I    J                  
------------------------------------ ------------------------------------ 
   7    8    4    4 -0.0441742389375   19    7    3    4  0.0396627602128 
   8    7    4    4 -0.0441742389375    7   19    4    3  0.0396627602128 
   9    7    5    4  0.0434721612112   15    7    5    4  0.0341096115432 
   7    9    4    5  0.0434721612112    7   15    4    5  0.0341096115432 
   7   27    4    4 -0.0420993806727   11    7    3    4  0.0316878398425 
  27    7    4    4 -0.0420993806727    7   11    4    3  0.0316878398425 
   7   16    4    4  0.0420985636661    7   18    4    4 -0.0278306621349 
  16    7    4    4  0.0420985636661 

Searching for 1 roots in irrep 4

EOMEE-CCSD guess vector:

   A    I                  
-------------------------- 
   7    5  1.0000000000000 

Beginning iterative solution of EOMEE-CC4 equations:

It.  Correlation Energy R1 Residual R2 Residual R3 Residual CPU Time (s) Walltime (s)
-------------------------------------------------------------------------------------
  1   0.503426737047143 2.93671e-02 6.05306e-02 2.19339e-03     3568.343      283.182
  2   0.405425005615476 7.93682e-02 3.59715e-02 4.61976e-03     3579.281      284.218
  3   0.364066012861014 2.37830e-02 1.10133e-02 5.68480e-03     3597.288      284.882
  4   0.364880540593071 3.68989e-02 8.07603e-03 3.24894e-03     3591.615      283.599
  5   0.355547821156022 1.11908e-02 1.18350e-02 2.91303e-03     3558.878      282.812
  6   0.346182217347233 5.67726e-03 2.72254e-03 1.10561e-03     3592.400      284.076
Locking on root: 0.346193753365351
  7   0.346193753365351 4.71601e-03 1.53001e-03 4.89139e-04     3616.874      286.316
  8   0.346098014205815 2.95708e-03 1.16305e-03 3.31319e-04     3612.274      285.800
  9   0.345530207987785 1.45281e-03 9.43993e-04 2.38691e-04     3625.495      286.356
 10   0.345528049457823 7.18517e-04 6.39341e-04 1.10003e-04     3698.366      288.321
 11   0.345627224411809 2.88673e-04 2.35170e-04 6.11923e-05     3655.801      286.875
 12   0.345623325763969 1.16896e-04 6.96403e-05 2.28201e-05     3660.984      287.052
 13   0.345605237955542 3.04851e-05 3.18017e-05 1.30648e-05     3682.037      288.702
 14   0.345610332771268 1.19437e-05 7.97920e-06 3.08955e-06     3692.423      288.652
 15   0.345613626315110 3.64198e-06 3.87823e-06 1.39459e-06     3726.824      290.331

EOMEE-CC4 iterations converged in 15 cycles and 4291.174 seconds (286.078 s/it.) at 2.593 Gflops/sec

EOMEE-CC4 excitation energy:   0.345613626315114 (  9.404624893924888 eV)
Total EOMEE-CC4 energy:      -75.997154398870777

Converged root:

   A    I                     A    I                     A    I                  
-------------------------- -------------------------- -------------------------- 
   7    5 -0.5469954446688   34    5 -0.0328288177443   39    5 -0.0080794847342 
  11    5 -0.3256387231860   31    5 -0.0166963877305   14    2 -0.0061434750211 
  12    5 -0.1756668055954   17    5 -0.0088859364016   36    5 -0.0059441195588 
  19    5 -0.1364937421513   45    5 -0.0082971355152   52    5 -0.0036085746075 
  20    5 -0.0367787048515   28    5 -0.0082380494093   54    5 -0.0034127625021 

   A    B    I    J                     A    B    I    J                  
------------------------------------ ------------------------------------ 
   7    9    5    5 -0.0511176456244    7   29    5    5 -0.0341119044693 
   9    7    5    5 -0.0511176456244   29    7    5    5 -0.0341119044693 
  19    7    3    5 -0.0399757257804    7   11    5    3 -0.0321175420950 
   7   19    5    3 -0.0399757257804   11    7    3    5 -0.0321175420950 
   7   15    5    5 -0.0389303553113    7   16    5    4 -0.0313730899283 
  15    7    5    5 -0.0389303553113   16    7    4    5 -0.0313730899283 
   7    8    5    4  0.0362743753735   27    7    4    5  0.0309724129603 
   8    7    4    5  0.0362743753735 

 @CHECKOUT-I, Total execution time (CPU/WALL):   250877.29/   19745.16 seconds.
--executable xncc finished with status     0 in    19746.81 seconds (walltime).
  The final electronic energy is       -75.997154398870777 a.u. 
  This computation required                        19757.19 seconds (walltime).
