 --invoking executable--
/home/CEISAM/blondel-a/soft/cfour2.1/cfour2.1-serial-mkl/bin/xjoda


   *************************************************************************
         <<<     CCCCCC     CCCCCC   |||     CCCCCC     CCCCCC   >>>
       <<<      CCC        CCC       |||    CCC        CCC         >>>
      <<<      CCC        CCC        |||   CCC        CCC            >>>
    <<<        CCC        CCC        |||   CCC        CCC              >>>
      <<<      CCC        CCC        |||   CCC        CCC            >>>
       <<<      CCC        CCC       |||    CCC        CCC         >>>
         <<<     CCCCCC     CCCCCC   |||     CCCCCC     CCCCCC   >>>
   *************************************************************************

     ****************************************************************
     * CFOUR Coupled-Cluster techniques for Computational Chemistry *
     ****************************************************************
 

   Department of Chemistry                Institut fuer Physikalische Chemie
   University of Florida                  Universitaet Mainz
   Gainesville, FL 32611, USA             D-55099 Mainz, Germany

   Department of Chemistry                Fakultaet fuer Chemie und Biowiss.
   Johns Hopkins University               Karlsruher Institut fuer Technologie
   Baltimore, MD 21218, USA               D-76131 Karlsruhe, Germany

   Department of Chemistry                Department of Physical Chemistry
   Southern Methodist University          Eotvos Lorand University
   Dallas, TX 75275, USA                  H-1053 Budapest, Hungary

 
                       Version 2.1
 
                     cribbar044                                        
                     Tue Mar 16 12:42:09 CET 2021                      
                     integer*8 version is running
 
********************************************************************************
*                          Input from ZMAT file                                *
********************************************************************************
Ketene -GS                                                                      
O    0.0000000000            0.0000000000           -0.1320966888               
H    0.0000000000            1.4315287786            0.9797000618               
H    0.0000000000           -1.4315287786            0.9797000618               
                                                                                
*CFOUR(COORD=CARTESIAN,UNITS=BOHR                                               
       MEMORY=250,MEM_UNIT=GB,CC_PROG=NCC                                       
       FROZEN_CORE=1                                                            
       CALC=CC4,BASIS=AUG-PVDZ                                                  
       SCF_CONV=8,CC_CONV=7,ESTATE_CONV=5,ESTATE_MAXCYC=120                     
       EXCITE=EOMEE,ESTATE_SYM=1/1/1/1)                                         
                                                                                
********************************************************************************
    -------------------------------------------------------------------
                    CFOUR Control Parameters 
    -------------------------------------------------------------------
        External           Internal           Value            Units
          Name               Name
    -------------------------------------------------------------------
       ABCDTYPE             IABCDT         STANDARD    [  0]    ***   
       ANHARMONIC           IANHAR         OFF         [  0]    ***   
       ANH_ALGORIT          IANALG         STANDARD    [  0]    ***   
       ANH_DERIVAT          IANDER         SECOND      [  1]    ***   
       ANH_MODE             ANHMOD         VIBRATION   [  0]    ***   
       ANH_STEPSIZ          ICUBST             50000          x 10-6  
       ANH_SYMMETR          IANHSM         ABELIAN     [  0]    ***   
       AO_LADDERS           IAOLAD         SINGLEPASS  [  1]    ***   
       AV_SCF               IAVSCF         OFF         [  0]    ***   
       BASIS                IBASIS         AUG-PVDZ    [ 33]    ***   
       BOTHVECTORS          BOTHVC         OFF         [  0]    ***   
       BOX_POTENT           IPIAB          OFF         [  0]    ***   
       BREIT                IBREIT         OFF         [  0]    ***   
       BRUCK_CONV           IBRTOL          10D-  4             ***   
       BRUECKNER            IBRKNR         OFF         [  0]    ***   
       BUFFERSIZE           IBUFFS              4096            ***   
       CACHE_RECS           ICHREC             10               ***   
       CALCLEVEL            ICLLVL         CC4         [ 52]    ***   
       CCORBOPT             ICCORB         OFF         [  0]  x 0.01  
       CC_CONV              ICCCNV          10D-  7             ***   
       CC_EXPORDER          ICCEOR              5               ***   
       CC_EXTRAPOL          ICCEXT         DIIS        [  1]    ***   
       CC_GUESS             ICCGES         MP2         [  0]    ***   
       CC_MAXCYC            ICCCYC            100              cycles 
       CC_PROGRAM           ICCPRO         NCC         [  5]    ***   
       CHARGE               ICHRGE              0               ***   
       CHOLESKY             ICHOLE         OFF         [  0]    ***   
       CIS_CONV             ICISTL              5               ***   
       COMM_SIZE            IPSIZE            ***               ***   
       CONSTANT             ICONST         OLD         [  1]    ***   
       CONTINUUM            ICONTU         NONE        [  0]    ***   
       CONTRACTION          ICNTYP         GENERAL     [  1]    ***   
       COORDINATES          ICOORD         CARTESIAN   [  1]    ***   
       CPHF_CONVER          ICPHFT          10D- 16             ***   
       CPHF_MAXCYC          ICPHFC             64              cycles 
       CUBIC                ICUBIC         OFF         [  0]    ***   
       CURVILINEAR          ICURVY         OFF         [  0]    ***   
       DBOC                 IDBOC          OFF         [  0]    ***   
       DCT                  IDCT           OFF         [  0]    ***   
       DERIV_LEV            IDRLVL         ZERO        [  0]    ***   
       DEVMEM_SIZE          IDVMEM         *********           MByte  
       DIAG_MRCC            IEOMST          10D-  0             ***   
       DIFF_TYPE            IDIFTY         RELAXED     [  0]    ***   
       DIRECT               IDIRCT         OFF         [  0]    ***   
       DROPMO               IDRPMO      NONE         
       ECP                  IECP           OFF         [  0]    ***   
       EIGENVECTOR          IVEC                1               ***   
       EL_ANHARM            IELANH         OFF         [  0]    ***   
       EOMFOLLOW            IEOMSR         ENERGY      [  0]    ***   
       EOMIP                IEOMIP         OFF         [  0]    ***   
       EOMLEVEL             HBARFM         SAME        [  0]    ***   
       EOM_MRCC             IMRCCE         NEW         [  1]    ***   
       EOM_NONIT            EOMNON         OFF         [  0]    ***   
       EOM_NSING            IEOMSI          10D-  0             ***   
       EOM_NSTATES          IMRCCD         DAVIDSON    [  0]    ***   
       EOM_NTRIP            IEOMTR          10D-  0             ***   
       EOM_ORDER            IEXORD         ENERGY      [  0]    ***   
       EOM_PROPSTA          IEOMST              0               ***   
       ESTATE_CONV          IEXTOL          10D-  5             ***   
       ESTATE_DIAG          IEXDIG         ITERATIVE   [  0]    ***   
       ESTATE_LOCK          IESLOC         ON          [  1]    ***   
       ESTATE_MAXC          IEXMXC            120               ***   
       ESTATE_PROP          IEXPRP         OFF         [  0]    ***   
       ESTATE_SYM           IEXSYM   1,  1,  1,  1,
       EVAL_HESS            IRECAL              0            # of cyc.
       EXCITATION           IEXCIT              0               ***   
       EXCITE               IEXCIT         EOMEE       [  3]    ***   
       EXTERN_POT           IEXPOT         OFF         [  0]    ***   
       FCGRADNEW            IFCGNW         OFF         [  0]    ***   
       FC_FIELD             IFINFC              0             x 10-6  
       FD_CALTYPE           IFDCAL         GRADONLY    [  0]    ***   
       FD_PROJECT           IFDPRJ         OFF         [  1]    ***   
       FD_STEPSIZE          IDISFD              0            10-4 bohr
       FD_USEGROUP          IFDGRP         FULL        [  0]    ***   
       FILE_RECSIZ          IFLREC              4096           words  
       FINITE_PERT          IFIPER              0             x 10-6  
       FIXGEOM              IFIXGM         OFF         [  0]    ***   
       FOCK                 IFOCK          AO          [  1]    ***   
       FREQ_ALGORI          IVIALG         STANDARD    [  0]    ***   
       FROZEN_CORE          IFROCO         ON          [  1]    ***   
       GAMMA_ABCD           IGABCD         STORE       [  0]    ***   
       GAMMA_ABCI           IGABCI         STORE       [  0]    ***   
       GENBAS_1             IGNBS1              0               ***   
       GENBAS_2             IGNBS2              0               ***   
       GENBAS_3             IGNBS3              0               ***   
       GENBAS_4             IGNBS4              0               ***   
       GEO_CONV             ICONTL              5              H/bohr 
       GEO_MAXCYC           IOPTCY             50               ***   
       GEO_MAXSTEP          IMXSTP            300            millibohr
       GEO_METHOD           INR            SINGLE_POINT[  5]    ***   
       GIAO                 IGIAO          OFF         [  1]    ***   
       GIMIC                IGIMIC         OFF         [  0]    ***   
       GRID                 IGRID          OFF         [  0]    ***   
       GRID_ALGO            IGALGO         SERIAL      [  0]    ***   
       GUESS                IGUESS         MOREAD      [  0]    ***   
       HBAR                 IHBAR          ON          [  1]    ***   
       HESS_TYPE            IHESTP         SCF         [  0]    ***   
       HF2_FILE             IHF2Fl         USE         [  1]    ***   
       HFSTABILITY          ISTABL         OFF         [  0]    ***   
       INCORE               INCORE         OFF         [  0]    ***   
       INPUT_MRCC           IMRCC          ON          [  1]    ***   
       INTEGRALS            INTTYP         VMOL        [  1]    ***   
       JODA_PRINT           IJPRNT              0               ***   
       KEYWORD_OUT          IDMPKW         NO          [  0]    ***   
       LINDEP_TOL           ILINDP              8               ***   
       LINEQ_CONV           IZTACN          10D-  7           cycles  
       LINEQ_EXPOR          ILMAXD              5               ***   
       LINEQ_MAXCY          ILMAXC            100               ***   
       LINEQ_TYPE           ILTYPE         DIIS        [  1]    ***   
       LOCK_ORBOCC          ILOCOC         OFF         [  0]    ***   
       MEMORY_SIZE          IMEMSZ         *********           words  
       MEM_UNIT             IMEMU          GB          [  3]    ***   
       MRCC                 IMRCCC         OFF         [  0]    ***   
       MULTIPLICTY          IMULTP              1               ***   
       NACOUPLING           IVCOUP         OFF         [  0]    ***   
       NEGEVAL              IDIE           ABORT       [  0]    ***   
       NEWNORM              INEWNO         OFF         [  0]    ***   
       NON-HF               INONHF         OFF         [  0]    ***   
       NTOP_TAMP            ITOPT2             15               ***   
       NUC_MODEL            INUCMO         POINT       [  0]    ***   
       OCCUPATION           IOCCU   ESTIMATED BY SCF 
       OPEN-SHELL           IOPEN          SPIN-ORBITAL[  0]    ***   
       OPTVIB               IOPTVB         OFF         [  0]    ***   
       ORBITALS             IORBTP         STANDARD    [  0]    ***   
       PARALLEL             IPARAL         ON          [  1]    ***   
       PARA_INT             IPINTS         ON          [  1]    ***   
       PARA_PRINT           IPPRIN              0               ***   
       PERT_ORB             IPTORB         STANDARD    [  0]    ***   
       POINTS               IGRDFD              0               ***   
       PRINT                IPRNT               0               ***   
       PROPS                IPROPS         OFF         [  0]    ***   
       PROP_INTEGR          IINTYP         INTERNAL    [  0]    ***   
       PSI                  IPSI           OFF         [  0]    ***   
       QC_ALG               IQCALG         FLM         [  0]    ***   
       QC_LINALG            IQCLIN         TRIDIAG     [  2]    ***   
       QC_MAXCYC            IQCMAX          10D-100           cycles  
       QC_MAXSCFCY          IQCMSC          10D- 15           cycles  
       QC_RTRUST            IQCRTR          10D-  0           x 10-3  
       QC_SKIPSCF           IQCSKI         OFF         [  0]    ***   
       QC_START             IQCSTA          10D-  1             ***   
       QRHFGUESS            IQGUES         OFF         [  0]    ***   
       QUARTIC              IQUART         OFF         [  0]    ***   
       RAMAN_INT            IRAMIN         OFF         [  0]    ***   
       RAMAN_ORB            IRAMRE         UNRELAXED   [  0]    ***   
       RDO                  IRDOFM         OFF         [  0]    ***   
       REDUCE_REPR          REDREP         Ir          [  0]    ***   
       REFERENCE            IREFNC         RHF         [  0]    ***   
       RELATIVIST           IRELAT         OFF         [  0]    ***   
       RELAX_DENS           IRDENS         OFF         [  0]    ***   
       RESET_FLAGS          IRESET         OFF         [  0]    ***   
       RESTART_CC           ICCRES         OFF         [  0]    ***   
       ROT_EVEC             ROTVEC              0               ***   
       SAVE_INTS            ISVINT         OFF         [  0]    ***   
       SCALE_ON             ISTCRT              0               ***   
       SCF_CONV             ISCFCV          10D-  8             ***   
       SCF_DAMPING          IDAMP               0             x 10-3  
       SCF_EXPORDE          IRPPOR              6               ***   
       SCF_EXPSTAR          IRPPLS              8               ***   
       SCF_EXTRAPO          IRPP           ON          [  1]    ***   
       SCF_MAXCYC           ISCFCY            150              cycles 
       SCF_NOSTOP           ISCFST         OFF         [  0]    ***   
       SCF_PRINT            ISCFPR              0               ***   
       SCF_PROG             ISCFPR         SCF         [  0]    ***   
       SD_FIELD             IFINSD              0             x 10-6  
       SOPERT               IPERSO         OFF         [  0]    ***   
       SPHERICAL            IDFGHI         ON          [  1]    ***   
       SPINORBIT            ISOCAL         OFF         [  0]    ***   
       SPINROTATIO          ISRCON         OFF         [  0]    ***   
       SPIN_FLIP            ISPFLP         OFF         [  0]    ***   
       SPIN_ORBIT           ISPORB         OFF         [  0]    ***   
       SPIN_SCAL            ISCSMP         OFF         [  0]    ***   
       STEEPSCALE           ISTPSC              1000          x 10-3  
       SUBGROUP             ISUBGP         DEFAULT     [  0]    ***   
       SUBGRPAXIS           ISBXYZ         X           [  0]    ***   
       SYMMETRY             ISYM           ON          [  0]    ***   
       SYM_CHECK            ISYMCK         OVERRIDE    [  1]    ***   
       T3_EXTRAPOL          IT3EXT         ON          [  1]    ***   
       T4_EXTRAPOL          IT4EXP         OFF         [  0]    ***   
       TAMP_SUM             IEVERY              5               ***   
       TESTSUITE            ITESTS         OFF         [  0]    ***   
       THERMOCH             ITHERM         OFF         [  0]    ***   
       TOL_CHOLESK          ITOLCH          10D-  4             ***   
       TRANGRAD             IRESRM         OFF         [  0]    ***   
       TRANS_INV            ITRAIN         USE         [  0]    ***   
       TREAT_PERT           ITREAT         SIMULTANEOUS[  0]    ***   
       TRIP_ALGORI          ITRALG         NORMAL      [  0]    ***   
       UIJ_THRESHO          IUIJTH              1               ***   
       UNITS                IUNITS         BOHR        [  1]    ***   
       UNOS                 IUNOS          OFF         [  0]    ***   
       UPDATE_HESS          IHUPDT         ON          [  1]    ***   
       VIBPHASE             ISETPH         STANDARD    [  0]    ***   
       VIBRATION            IVIB           NO          [  0]    ***   
       VIB_ALGORIT          IGEALG         STANDARD    [  0]    ***   
       VNATORB              IVNORB         OFF         [  0]    ***   
       VTRAN                IVTRAN         FULL/PARTIAL[  0]    ***   
       XFIELD               IXEFLD              0             x 10-6  
       XFORM_TOL            IXFTOL          10D- 11             ***   
       YFIELD               IYEFLD              0             x 10-6  
       ZFIELD               IZEFLD              0             x 10-6  
       ZSCALE_EXP           IZEXPS         OFF         [  0]    ***   
    -------------------------------------------------------------------
  @GETXYZ-I,     3 atoms read from ZMAT.
   Rotational constants (in cm-1): 
          9.4902686961            14.5740134783            27.2065789719
   Rotational constants (in MHz): 
     284511.1378075283        436917.9935688575        815632.8326432100
********************************************************************************
   The full molecular point group is C2v .
   The largest Abelian subgroup of the full molecular point group is C2v .
   The computational point group is C2v .
********************************************************************************


 ----------------------------------------------------------------
         Coordinates used in calculation (QCOMP) 
 ----------------------------------------------------------------
 Z-matrix   Atomic            Coordinates (in bohr)
  Symbol    Number           X              Y              Z
 ----------------------------------------------------------------
     O         8         0.00000000     0.00000000    -0.12442659
     H         1         0.00000000     1.43152878     0.98737016
     H         1         0.00000000    -1.43152878     0.98737016
 ----------------------------------------------------------------
 
   Interatomic distance matrix (Angstroms) 
 
                 O             H             H    
                [ 1]        [ 2]        [ 3]
  O    [ 1]     0.00000
  H    [ 2]     0.95916     0.00000
  H    [ 3]     0.95916     1.51506     0.00000
 rotcon2
   Rotational constants (in cm-1): 
          9.4902686961            27.2065789719            14.5740134783
   Rotational constants (in MHz): 
     284511.1378075283        815632.8326432100        436917.9935688575
  There is   1 frozen-core orbital.
  There are   41 basis functions.
 @GEOPT-W, Archive file not created for single-point calculation.
 @CHECKOUT-I, Total execution time (CPU/WALL):        0.18/       4.80 seconds.
--executable xjoda finished with status     0 in       10.17 seconds (walltime).
 --invoking executable--
/home/CEISAM/blondel-a/soft/cfour2.1/cfour2.1-serial-mkl/bin/xvmol
 SERIAL VERSION OF MOLECULE STARTED
********************************************************************************
                    INPUT FROM MOL FILE
********************************************************************************
INTGRL        1    0    1    0    0    0    0    0    0                         
         *** CFOUR Program System (Release V0.1) ***                            
Ketene -GS                                                                      
    2    2 X  Y       0.10E-08              0    0                              
   9999.00      3.00                                                            
          8.00000000    1    3    1    1    1                                   
O #1   0.000000000000000   0.000000000000000  -0.124426592697155                
   10    4                                                                      
   11720.0000000000       7.100000000000000E-004 -1.600000000000000E-004        
  0.000000000000000E+000  0.000000000000000E+000                                
   1759.00000000000       5.470000000000000E-003 -1.263000000000000E-003        
  0.000000000000000E+000  0.000000000000000E+000                                
   400.800000000000       2.783700000000000E-002 -6.267000000000000E-003        
  0.000000000000000E+000  0.000000000000000E+000                                
   113.700000000000       0.104800000000000      -2.571600000000000E-002        
  0.000000000000000E+000  0.000000000000000E+000                                
   37.0300000000000       0.283062000000000      -7.092400000000000E-002        
  0.000000000000000E+000  0.000000000000000E+000                                
   13.2700000000000       0.448719000000000      -0.165411000000000             
  0.000000000000000E+000  0.000000000000000E+000                                
   5.02500000000000       0.270952000000000      -0.116955000000000             
  0.000000000000000E+000  0.000000000000000E+000                                
   1.01300000000000       1.545800000000000E-002  0.557368000000000             
  0.000000000000000E+000  0.000000000000000E+000                                
  0.302300000000000      -2.585000000000000E-003  0.572759000000000             
   1.00000000000000       0.000000000000000E+000                                
  7.896000000000000E-002  0.000000000000000E+000  0.000000000000000E+000        
  0.000000000000000E+000   1.00000000000000                                     
    5    3                                                                      
   17.7000000000000       4.301800000000000E-002  0.000000000000000E+000        
  0.000000000000000E+000                                                        
   3.85400000000000       0.228913000000000       0.000000000000000E+000        
  0.000000000000000E+000                                                        
   1.04600000000000       0.508728000000000       0.000000000000000E+000        
  0.000000000000000E+000                                                        
  0.275300000000000       0.460531000000000        1.00000000000000             
  0.000000000000000E+000                                                        
  6.856000000000000E-002  0.000000000000000E+000  0.000000000000000E+000        
   1.00000000000000                                                             
    2    2                                                                      
   1.18500000000000        1.00000000000000       0.000000000000000E+000        
  0.332000000000000       0.000000000000000E+000   1.00000000000000             
          1.00000000    1    2    1    1                                        
H #2   0.000000000000000   1.431528778600000   0.987370157902845                
    5    3                                                                      
   13.0100000000000       1.968500000000000E-002  0.000000000000000E+000        
  0.000000000000000E+000                                                        
   1.96200000000000       0.137977000000000       0.000000000000000E+000        
  0.000000000000000E+000                                                        
  0.444600000000000       0.478148000000000       0.000000000000000E+000        
  0.000000000000000E+000                                                        
  0.122000000000000       0.501240000000000        1.00000000000000             
  0.000000000000000E+000                                                        
  2.974000000000000E-002  0.000000000000000E+000  0.000000000000000E+000        
   1.00000000000000                                                             
    2    2                                                                      
  0.727000000000000        1.00000000000000       0.000000000000000E+000        
  0.141000000000000       0.000000000000000E+000   1.00000000000000             
FINISH                                                                          
 
********************************************************************************
 ONE- AND TWO-ELECTRON INTEGRALS OVER SYMMETRY-ADAPTED AOS ARE CALCULATED.

  SPHERICAL HARMONICS ARE USED.
  
  INTEGRALS LESS THAN  0.10E-13 ARE NEGLECTED.

  NUCLEAR REPULSION ENERGY :    9.1765804707 A.U.
  @MOLECU-I, ONE ELECTRON INTEGRALS (CPU/WALL):        0.02/       0.05 SECONDS.
  @TWOEL-I,      16224 INTEGRALS OF SYMMETRY TYPE  I I I I
  @TWOEL-I,      36629 INTEGRALS OF SYMMETRY TYPE  I J I J
  @TWOEL-I,      21412 INTEGRALS OF SYMMETRY TYPE  I I J J
  @TWOEL-I,      17042 INTEGRALS OF SYMMETRY TYPE  I J K L
  @TWOEL-I, TOTAL NUMBER OF 2-E INTEGRALS      91307.
  @MOLECU-I, TWO ELECTRON INTEGRALS (CPU/WALL):        0.35/       0.11 SECONDS.
 @CHECKOUT-I, Total execution time (CPU/WALL):        0.39/       0.17 seconds.

Running with 20 threads/proc

--executable xvmol finished with status     0 in        5.30 seconds (walltime).
 --invoking executable--
/home/CEISAM/blondel-a/soft/cfour2.1/cfour2.1-serial-mkl/bin/xvmol2ja
 @GETMEM-I,  Allocated  238418 MB of main memory.
 @CHECKOUT-I, Total execution time (CPU/WALL):        0.03/       0.09 seconds.
--executable xvmol2ja finished with status     0 in        1.69 seconds (walltime).
 --invoking executable--
/home/CEISAM/blondel-a/soft/cfour2.1/cfour2.1-serial-mkl/bin/xvscf
  There are   41 functions in the AO basis.

  There are 4 irreducible representations.

       Irrep        # of functions
         1                 18
         2                  7
         3                 12
         4                  4


  Parameters for SCF calculation: 
        SCF reference function:  RHF  
  Maximum number of iterations:  150
     Full symmetry point group: C2v 
     Computational point group: C2v 
        Initial density matrix: MOREAD                 
     SCF convergence tolerance: 10**(- 8)
  DIIS convergence acceleration:  ON
          Latest start for DIIS:   8
                     DIIS order:   6

  Memory information:     103046 words required.
  Fock matrices are constructed from AO integral file.
 @GETMEM-I,  Allocated       0 MB of main memory.
  Initialization and symmetry analysis required      0.003 seconds.

  @INITGES-I, Occupancies from core Hamiltonian:

          Alpha population by irrep:   3    1    1    0
           Beta population by irrep:   3    1    1    0


 total no. of electrons in initial guess :  0.000000000000000E+000
  --------------------------------------------------------------------
  Iteration         Total Energy            Largest Density Difference
  --------------------------------------------------------------------
       0             9.176580470691922              0.0000000000D+00
   current occupation vector 
     3  1  1  0
     3  1  1  0
       1           -68.573116130471675              0.1047216244D+02
   current occupation vector 
     3  1  1  0
     3  1  1  0
       2           -66.593442879706302              0.2333412663D+02
   current occupation vector 
     3  0  2  0
     3  0  2  0
       3           -72.468770381901450              0.2334298218D+02
   current occupation vector 
     3  1  1  0
     3  1  1  0
       4           -69.116346827668849              0.2041556130D+02
   current occupation vector 
     3  0  2  0
     3  0  2  0
       5           -73.136036169151822              0.2041560402D+02
   current occupation vector 
     3  1  1  0
     3  1  1  0
       6           -69.608631660702343              0.1985429827D+02
   current occupation vector 
     3  0  2  0
     3  0  2  0
       7           -73.282417860018725              0.1985429962D+02
   current occupation vector 
     3  1  1  0
     3  1  1  0
       8           -69.727731880655369              0.1974180201D+02
   current occupation vector 
     3  0  2  0
     3  0  2  0
       9           -75.855109352475139              0.1974160038D+02
   current occupation vector 
     3  1  1  0
     3  1  1  0
      10           -76.040190612176545              0.4671496520D+00
   current occupation vector 
     3  1  1  0
     3  1  1  0
      11           -76.041259497697936              0.3916172181D-01
   current occupation vector 
     3  1  1  0
     3  1  1  0
      12           -76.041300973354680              0.1125783142D-01
   current occupation vector 
     3  1  1  0
     3  1  1  0
      13           -76.041301859467282              0.1265085137D-02
   current occupation vector 
     3  1  1  0
     3  1  1  0
      14           -76.041302022182279              0.4717313272D-03
   current occupation vector 
     3  1  1  0
     3  1  1  0
      15           -76.041302029572691              0.1654089245D-03
   current occupation vector 
     3  1  1  0
     3  1  1  0
      16           -76.041302029645223              0.1350722889D-04
   current occupation vector 
     3  1  1  0
     3  1  1  0
      17           -76.041302029648762              0.3026676765D-05
   current occupation vector 
     3  1  1  0
     3  1  1  0
      18           -76.041302029648790              0.5903693823D-06
   current occupation vector 
     3  1  1  0
     3  1  1  0
      19           -76.041302029649046              0.7883979136D-07
   current occupation vector 
     3  1  1  0
     3  1  1  0
      20           -76.041302029648833              0.1745686773D-07
   current occupation vector 
     3  1  1  0
     3  1  1  0

  SCF has converged.

 Density matrix saved to file den.dat
 total electron number:   10.0000000000000     
     E(SCF)=       -76.041302029648790              0.2374591856D-08

  Eigenvector printing suppressed.

 @PUTMOS-I, Writing converged MOs to NEWMOS. 
 @PUTMOS-I, Symmetry   1 Full Blocks  4 Partial Blocksize   2
 @PUTMOS-I, Symmetry   2 Full Blocks  1 Partial Blocksize   3
 @PUTMOS-I, Symmetry   3 Full Blocks  3 Partial Blocksize   0
 @PUTMOS-I, Symmetry   4 Full Blocks  1 Partial Blocksize   0
 @PUTFOCK-I, Writing converged Fock matrix to NEWFOCK. 
 @PUTFOCK-I, Symmetry   1 Full Blocks  4 Partial Blocksize   2
 @PUTFOCK-I, Symmetry   2 Full Blocks  1 Partial Blocksize   3
 @PUTFOCK-I, Symmetry   3 Full Blocks  3 Partial Blocksize   0
 @PUTFOCK-I, Symmetry   4 Full Blocks  1 Partial Blocksize   0


 
  ORBITAL EIGENVALUES (ALPHA)  (1H = 27.2113834 eV)

       MO #        E(hartree)               E(eV)           FULLSYM    COMPSYM
       ----   --------------------   --------------------   -------   ---------
    1     1         -20.5776679386        -559.9468117540      A1        A1 (1)
    2     2          -1.3557727360         -36.8924517224      A1        A1 (1)
    3    26          -0.7178802182         -19.5345138524      B2        B2 (3)
    4     3          -0.5856326711         -15.9358751448      A1        A1 (1)
    5    19          -0.5093340082         -13.8596829754      B1        B1 (2)
  +++++++++++++++++++++++++++++++++++++++++++++++++++++++++++++++++++++++++++++
    6     4           0.0353896284           0.9630007462      A1        A1 (1)
    7    27           0.0579339855           1.5764638926      B2        B2 (3)
    8     5           0.1739981373           4.7347300261      A1        A1 (1)
    9    20           0.1967907384           5.3549482325      B1        B1 (2)
   10     6           0.2225382253           6.0555729693      A1        A1 (1)
   11    28           0.2315509808           6.3008225163      B2        B2 (3)
   12    29           0.2901553727           7.8955290931      B2        B2 (3)
   13     7           0.3314779704           9.0199741424      A1        A1 (1)
   14    38           0.3857639446          10.4971705988      A2        A2 (4)
   15     8           0.4034694792          10.9789626898      A1        A1 (1)
   16    21           0.4332655995          11.7897563408      B1        B1 (2)
   17    30           0.5391068154          14.6698422486      B2        B2 (3)
   18     9           0.6481168937          17.6361572822      A1        A1 (1)
   19    31           0.6581808697          17.9100119917      B2        B2 (3)
   20    32           0.8105238904          22.0554763364      B2        B2 (3)
   21    10           0.9297955580          25.3010234118      A1        A1 (1)
   22    22           1.1013266726          29.9686223355      B1        B1 (2)
   23    11           1.1156110553          30.3573201520      A1        A1 (1)
   24    39           1.1487154311          31.2581360130      A2        A2 (4)
   25    12           1.3063331298          35.5471316423      A1        A1 (1)
   26    33           1.4662477212          39.8986289022      B2        B2 (3)
   27    23           1.4824005882          40.3381707576      B1        B1 (2)
   28    13           1.5833765774          43.0858671149      A1        A1 (1)
   29    34           2.0026632078          54.4952363694      B2        B2 (3)
   30    40           2.0100149063          54.6952862544      A2        A2 (4)
   31    24           2.1084332442          57.3733853811      B1        B1 (2)
   32    14           2.3655559212          64.3700491255      A1        A1 (1)
   33    35           2.4792297253          67.4632705922      B2        B2 (3)
   34    15           2.6244910882          71.4160332302      A1        A1 (1)
   35    36           2.7141729449          73.8564006177      B2        B2 (3)
   36    16           2.9675914011          80.7522673904      A1        A1 (1)
   37    25           3.6730376012          99.9484344089      B1        B1 (2)
   38    17           3.6901875081         100.4151071012      A1        A1 (1)
   39    41           3.7025723506         100.7521157983      A2        A2 (4)
   40    18           4.0237559712         109.4919664408      A1        A1 (1)
   41    37           4.3055317345         117.1594747683      B2        B2 (3)


  VSCF finished.

 @CHECKOUT-I, Total execution time (CPU/WALL):        0.08/       0.42 seconds.
--executable xvscf finished with status     0 in        3.49 seconds (walltime).
 --invoking executable--
/home/CEISAM/blondel-a/soft/cfour2.1/cfour2.1-serial-mkl/bin/xvtran
 @GETMEM-I,  Allocated  238418 MB of main memory.
  Full RHF integral transformation
  The following   1 MOs will be dropped:
    1
  There are  40 active molecular orbitals.
  Transformation of IIII integrals :
  1 pass through the AO integral file was required.
       16224 AO integrals were read.
       15323 MO integrals were written to HF2.
  Transformation of IIJJ integrals :
  1 pass through the AO integral file was required.
       21412 AO integrals were read.
       20992 MO integrals were written to HF2.
  Transformation of IJIJ integrals :
  1 pass through the AO integral file was required.
       36629 AO integrals were read.
       35548 MO integrals were written to HF2.
  Transformation of IJKL integrals :
  1 pass through the AO integral file was required.
       17042 AO integrals were read.
       17136 MO integrals were written to HF2.
  Summary of active molecular orbitals: 
------------------------------------------------------------------------
 
  Index      Eigenvalue    Symmetry    Index      Eigenvalue    Symmetry
------------------------------------------------------------------------
     1        -1.3557727        1        21         0.4332656        2
     2        -0.5856327        1        22         1.1013267        2
     3        -0.5093340        2        23         1.4824006        2
     4        -0.7178802        3        24         2.1084332        2
     5         0.0353896        1        25         3.6730376        2
     6         0.1739981        1        26         0.0579340        3
     7         0.2225382        1        27         0.2315510        3
     8         0.3314780        1        28         0.2901554        3
     9         0.4034695        1        29         0.5391068        3
    10         0.6481169        1        30         0.6581809        3
    11         0.9297956        1        31         0.8105239        3
    12         1.1156111        1        32         1.4662477        3
    13         1.3063331        1        33         2.0026632        3
    14         1.5833766        1        34         2.4792297        3
    15         2.3655559        1        35         2.7141729        3
    16         2.6244911        1        36         4.3055317        3
    17         2.9675914        1        37         0.3857639        4
    18         3.6901875        1        38         1.1487154        4
    19         4.0237560        1        39         2.0100149        4
    20         0.1967907        2        40         3.7025724        4
------------------------------------------------------------------------
  -1.35577273599292      -0.585632671096919      -0.509334008185752     
 -0.717880218189002       3.538962838024078E-002  0.173998137341560     
  0.222538225281769       0.331477970444764       0.403469479239575     
  0.648116893688746       0.929795557979128        1.11561105533548     
   1.30633312977039        1.58337657742652        2.36555592118492     
   2.62449108817589        2.96759140111860        3.69018750811591     
   4.02375597121569       0.196790738413751       0.433265599456515     
   1.10132667255204        1.48240058819066        2.10843324419557     
   3.67303760120137       5.793398554559547E-002  0.231550980840060     
  0.290155372735756       0.539106815443500       0.658180869690420     
  0.810523890396444        1.46624772124751        2.00266320783286     
   2.47922972531356        2.71417294490559        4.30553173449740     
  0.385763944614425        1.14871543109363        2.01001490627561     
   3.70257235059703     
 @CHECKOUT-I, Total execution time (CPU/WALL):        0.07/       0.88 seconds.
--executable xvtran finished with status     0 in        5.14 seconds (walltime).
 --invoking executable--
/home/CEISAM/blondel-a/soft/cfour2.1/cfour2.1-serial-mkl/bin/xintprc
 @GETMEM-I,  Allocated  238418 MB of main memory.
  @GMOIAA-I, Processing MO integrals for spin case AA.
  @GMOIAA-I, Generation of integral list completed.
                      TYPE                NUMBER
                      ----               --------
                      PPPP                 58654
                      PPPH                 25252
                      PPHH                  2810
                      PHPH                  1857
                      PHHH                   404
                      HHHH                    22

                     TOTAL                 88999

  @FORMT2-I, Second-order MP correlation energies:
            ------------------------------------------------
            E(SCF)                  =    -76.041302029649 a.u.
            E2(AA)                  =     -0.027930030921 a.u.
            E2(AB)                  =     -0.163661286995 a.u.
            E2(TOT)                 =     -0.219521348837 a.u.
            Total MP2 energy        =    -76.260823378486 a.u.
            ------------------------------------------------
   Largest T2 amplitudes for spin case AB:
       _       _                 _       _                 _       _
   i   j   a   b             i   j   a   b             i   j   a   b
-----------------------------------------------------------------------------
[  3   3  23  23]-0.03292 [  4   4  31  31]-0.02213 [  2   2  14  14]-0.01915
[  2   2  31  31]-0.01804 [  3   2  23  14]-0.01743 [  2   3  14  23]-0.01743
[  4   4  28  28]-0.01742 [  3   3  20  20]-0.01708 [  2   2   9   9]-0.01652
[  3   3  20  23]-0.01627 [  3   3  23  20]-0.01627 [  2   2  12  12]-0.01598
[  4   4  31  28]-0.01577 [  4   4  28  31]-0.01577 [  3   3  22  22]-0.01509
-----------------------------------------------------------------------------
   Norm of T2AB vector (     5476 symmetry allowed elements):  0.2090880187.
-----------------------------------------------------------------------------
 @CHECKOUT-I, Total execution time (CPU/WALL):        0.10/       0.92 seconds.
--executable xintprc finished with status     0 in        4.53 seconds (walltime).
  calling xncc 
 --invoking executable--
/home/CEISAM/blondel-a/soft/cfour2.1/cfour2.1-serial-mkl/bin/xncc
 @GETMEM-I,  Allocated       7 MB of main memory.

Running with 20 threads/proc

Following the lowest-energy eigenvector.
Using a partitioned Davidson procedure.
Using discrete restarting.
Using an orthogonal subspace.
Orthogonalizing against previous roots.
Using Modified Gram-Schmidt orthogonalization.

Using DIIS to accelerate the convergence of T1 and T2
Using DIIS to accelerate the convergence of T3
Using immediate high-order contributions
Performing 2 CCSDT sub-iterations
Damping factor for T3: 0.000000
Damping factor for T4: 0.000000

Transposes are coarse-threaded

Memory limit:                232.831 GiB
Minimum memory requirement:    7.115 MiB
Compromise memory amount:    192.154 MiB
Optimal memory requirement:  261.440 MiB

List              Location   Size        Cached Hunks Est. Disk I/O
----------------- ---------- ----------- ------ ----- -------------

           HR_DAV      470:1    1.306 MiB    Yes     -     2.546 GiB
                R        471  163.125 KiB    Yes     -    14.337 MiB
            R_DAV      470:0    1.306 MiB    Yes     -     4.629 GiB
           T_DIIS       70:0  215.742 KiB    Yes     -     3.792 MiB
           Z_DIIS       70:1  215.742 KiB    Yes     -     6.321 MiB
          <AI|bj>         18   42.781 KiB    Yes     -     7.819 MiB
          <Ab|Cd>        233    3.331 MiB    Yes     -    10.807 GiB
          <Ab|Ci>         30  381.344 KiB    Yes     -     1.407 GiB
          <Ab|Ij>         16   42.781 KiB    Yes     -   183.633 MiB
          <Ai|Bj>         25   42.781 KiB    Yes     -     7.061 MiB
          <Aj|bI>         21   42.781 KiB     No     -         0   B
          <Ij|Ka>         10    4.844 KiB    Yes     -    25.045 MiB
          <Ij|Kl>         13      576   B    Yes     -    43.875 KiB
           DD(AI)      448:8      376   B    Yes     -    18.000 KiB
        DD(Ab,Ij)        450   42.781 KiB    Yes     -     2.531 MiB
            F(EA)       92:0    3.109 KiB    Yes     -     2.699 MiB
            F(EM)       93:0      376   B    Yes     -   359.844 KiB
            F(MI)       91:0       48   B    Yes     -    53.625 KiB
           HR(AI)      490:2      376   B    Yes     -     1.236 MiB
        HR(Ab,Ij)        463   42.781 KiB    Yes     -   309.089 MiB
            Q(AI)      190:2      376   B    Yes     -   132.188 KiB
         Q(Ab,Ij)         50   42.781 KiB    Yes     -    63.921 MiB
        QQ(Ab,Ij)          3   42.781 KiB    Yes     -     9.565 MiB
            R(AI)      490:0      376   B    Yes     -     2.906 MiB
         R(Ab,Ij)        446   42.781 KiB    Yes     -   501.933 MiB
            T(AI)       90:0      376   B    Yes     -   901.812 KiB
         T(Ab,Ij)         46   42.781 KiB    Yes     -   253.788 MiB
         W(Mn,Ij)         53      576   B    Yes     -   524.250 KiB
        W~(Ab,Ej)        130  381.344 KiB    Yes     -   850.935 MiB
        W~(EM,bj)         56   42.781 KiB    Yes     -    69.311 MiB
        W~(Em,Bj)         58   42.781 KiB    Yes     -    86.231 MiB
        W~(Ij,Mb)        110    4.844 KiB    Yes     -     7.038 MiB
       W~~(Ab,Ef)         33    3.331 MiB    Yes     -   219.854 MiB
       W~~(Ab,Ej)        169  381.344 KiB    Yes     -   778.329 MiB
       W~~(EM,bj)         76   42.781 KiB    Yes     -    24.482 MiB
       W~~(Em,Bj)         78   42.781 KiB    Yes     -    24.482 MiB
       W~~(Ij,Mb)        165    4.844 KiB    Yes     -    22.334 MiB
       W~~(Mn,Ij)        153      576   B    Yes     -    36.562 KiB
         X(Ab,Ef)        433    3.331 MiB    Yes     -     5.256 GiB
         X(Ab,Ej)        430  381.344 KiB    Yes     -   961.084 MiB
         X(Ab,Ij)        416   42.781 KiB     No     -         0   B
            X(EA)      492:0    3.109 KiB    Yes     -     1.631 MiB
            X(EM)      493:0      376   B    Yes     -   168.750 KiB
         X(EM,bj)        418   42.781 KiB    Yes     -    35.596 MiB
         X(Ef,Am)        469  381.344 KiB    Yes     -   277.646 MiB
         X(Em,Bj)        425   42.781 KiB    Yes     -    45.088 MiB
         X(Ij,Mb)        410    4.844 KiB    Yes     -    16.018 MiB
            X(MI)      491:0       48   B    Yes     -    24.375 KiB
         X(Mn,Ie)        465    4.844 KiB    Yes     -     9.163 MiB
         X(Mn,Ij)        413      576   B    Yes     -   360.000 KiB
            Z(AI)       90:2      376   B    Yes     -   132.188 KiB
         Z(Ab,Ij)         63   42.781 KiB    Yes     -    15.040 MiB
      HR(abc,ijk)    HR3FILE    1.457 MiB    Yes     1     4.005 GiB
    HR(abcd,ijkl)          -   61.506 MiB     No     1         0   B
            HR3_1      HR3_1    1.457 MiB    Yes     1     4.027 GiB
           HR3_10     HR3_10    1.457 MiB    Yes     1     4.605 GiB
           HR3_11     HR3_11    1.457 MiB    Yes     1     4.310 GiB
           HR3_12     HR3_12    1.457 MiB    Yes     1     4.394 GiB
           HR3_13     HR3_13    1.457 MiB    Yes     1     4.477 GiB
           HR3_14     HR3_14    1.457 MiB    Yes     1     4.561 GiB
           HR3_15     HR3_15    1.457 MiB    Yes     1     4.644 GiB
           HR3_16     HR3_16    1.457 MiB    Yes     1     4.728 GiB
           HR3_17     HR3_17    1.457 MiB    Yes     1     4.811 GiB
           HR3_18     HR3_18    1.457 MiB    Yes     1     4.894 GiB
           HR3_19     HR3_19    1.457 MiB    Yes     1     4.978 GiB
            HR3_2      HR3_2    1.457 MiB    Yes     1     3.949 GiB
           HR3_20     HR3_20    1.457 MiB    Yes     1     5.061 GiB
           HR3_21     HR3_21    1.457 MiB    Yes     1   233.508 MiB
           HR3_22     HR3_22    1.457 MiB    Yes     1   233.508 MiB
           HR3_23     HR3_23    1.457 MiB    Yes     1   233.508 MiB
           HR3_24     HR3_24    1.457 MiB    Yes     1   233.508 MiB
           HR3_25     HR3_25    1.457 MiB    Yes     1   233.508 MiB
           HR3_26     HR3_26    1.457 MiB    Yes     1   233.508 MiB
           HR3_27     HR3_27    1.457 MiB    Yes     1   233.508 MiB
           HR3_28     HR3_28    1.457 MiB    Yes     1   233.508 MiB
           HR3_29     HR3_29    1.457 MiB    Yes     1   233.508 MiB
            HR3_3      HR3_3    1.457 MiB    Yes     1     4.038 GiB
           HR3_30     HR3_30    1.457 MiB    Yes     1   233.508 MiB
           HR3_31     HR3_31    1.457 MiB     No     1         0   B
            HR3_4      HR3_4    1.457 MiB    Yes     1     4.127 GiB
            HR3_5      HR3_5    1.457 MiB    Yes     1     4.216 GiB
            HR3_6      HR3_6    1.457 MiB    Yes     1     4.305 GiB
            HR3_7      HR3_7    1.457 MiB    Yes     1     4.394 GiB
            HR3_8      HR3_8    1.457 MiB    Yes     1     4.483 GiB
            HR3_9      HR3_9    1.457 MiB    Yes     1     4.572 GiB
       Q(abc,ijk)     Q3FILE    1.457 MiB    Yes     1    87.404 MiB
       R(abc,ijk)     R3FILE    1.457 MiB    Yes     1     9.594 GiB
             R3_1       R3_1    1.457 MiB    Yes     1     7.642 GiB
            R3_10      R3_10    1.457 MiB    Yes     1     8.220 GiB
            R3_11      R3_11    1.457 MiB    Yes     1     7.814 GiB
            R3_12      R3_12    1.457 MiB    Yes     1     7.898 GiB
            R3_13      R3_13    1.457 MiB    Yes     1     7.981 GiB
            R3_14      R3_14    1.457 MiB    Yes     1     8.065 GiB
            R3_15      R3_15    1.457 MiB    Yes     1     8.148 GiB
            R3_16      R3_16    1.457 MiB    Yes     1     8.232 GiB
            R3_17      R3_17    1.457 MiB    Yes     1     8.315 GiB
            R3_18      R3_18    1.457 MiB    Yes     1     8.398 GiB
            R3_19      R3_19    1.457 MiB    Yes     1     8.482 GiB
           R3_1_1     R3_1_1    1.457 MiB    Yes     1   109.254 MiB
             R3_2       R3_2    1.457 MiB    Yes     1     7.564 GiB
            R3_20      R3_20    1.457 MiB    Yes     1     8.398 GiB
            R3_21      R3_21    1.457 MiB    Yes     1   233.508 MiB
            R3_22      R3_22    1.457 MiB    Yes     1   233.508 MiB
            R3_23      R3_23    1.457 MiB    Yes     1   233.508 MiB
            R3_24      R3_24    1.457 MiB    Yes     1   233.508 MiB
            R3_25      R3_25    1.457 MiB    Yes     1   233.508 MiB
            R3_26      R3_26    1.457 MiB    Yes     1   233.508 MiB
            R3_27      R3_27    1.457 MiB    Yes     1   233.508 MiB
            R3_28      R3_28    1.457 MiB    Yes     1   233.508 MiB
            R3_29      R3_29    1.457 MiB    Yes     1   233.508 MiB
           R3_2_1     R3_2_1    1.394 MiB    Yes     1   104.567 MiB
             R3_3       R3_3    1.457 MiB    Yes     1     7.653 GiB
            R3_30      R3_30    1.457 MiB    Yes     1   233.508 MiB
            R3_31      R3_31    1.457 MiB     No     1         0   B
           R3_3_1     R3_3_1    1.453 MiB    Yes     1   109.007 MiB
             R3_4       R3_4    1.457 MiB    Yes     1     7.742 GiB
           R3_4_1     R3_4_1    1.391 MiB    Yes     1   104.320 MiB
             R3_5       R3_5    1.457 MiB    Yes     1     7.831 GiB
             R3_6       R3_6    1.457 MiB    Yes     1     7.920 GiB
             R3_7       R3_7    1.457 MiB    Yes     1     8.009 GiB
             R3_8       R3_8    1.457 MiB    Yes     1     8.098 GiB
             R3_9       R3_9    1.457 MiB    Yes     1     8.187 GiB
       T(abc,ijk)     T3FILE    1.457 MiB    Yes     1   525.878 MiB
     T(abcd,ijkl)          -   61.506 MiB     No     1         0   B
             T3_1       T3_1    1.457 MiB    Yes     1    43.702 MiB
             T3_2       T3_2    1.457 MiB    Yes     1    21.851 MiB
             T3_3       T3_3    1.457 MiB    Yes     1    21.851 MiB
             T3_4       T3_4    1.457 MiB    Yes     1    21.851 MiB
             T3_5       T3_5    1.457 MiB    Yes     1    21.851 MiB
       W(abc,ije)    WABCIJE   32.546 MiB    Yes     1     4.799 GiB
       W(abm,ijk)    WABMIJK  414.125 KiB    Yes     1    61.067 MiB
       X(abc,ije)    XABCIJE   32.546 MiB    Yes     1     3.754 GiB
       X(abm,ijk)    XABMIJK  414.125 KiB    Yes     1    47.461 MiB
       X(mnd,jkl)    XMNDJKL   46.375 KiB     No     1         0   B
       Z(abc,ijk)     Z3FILE    1.457 MiB    Yes     1   240.360 MiB
     Z(abcd,ijkl)          -   61.506 MiB     No     1         0   B
             Z3_1       Z3_1    1.457 MiB    Yes     1    43.702 MiB
             Z3_2       Z3_2    1.457 MiB    Yes     1    43.702 MiB
             Z3_3       Z3_3    1.457 MiB    Yes     1    43.702 MiB
             Z3_4       Z3_4    1.457 MiB    Yes     1    43.702 MiB
             Z3_5       Z3_5    1.457 MiB    Yes     1    43.702 MiB

Simulation and memory analysis took 3.395 seconds

MP2 correlation energy:  -0.219521348837493

Non-iterative calculation of MP2 took 0.004 cpu seconds and 0.000 walltime seconds at 0.963 Gflops/sec

Total MP2 energy: -76.260823378486279

Beginning iterative solution of CC4 equations:

It.  Correlation Energy T1 Residual T2 Residual T3 Residual CPU Time (s) Walltime (s)
-------------------------------------------------------------------------------------
  1  -0.232606120078931 1.65550e-03 7.23028e-04 3.56477e-04       88.920        4.711
  2  -0.233187710475860 1.57209e-04 8.84452e-05 6.93420e-05       87.046        4.600
  3  -0.233234052478191 8.92480e-06 2.34148e-06 1.19992e-05       82.103        4.115
  4  -0.233233054674807 2.85420e-06 6.90679e-07 1.75064e-06       81.786        4.099
  5  -0.233232719099041 2.78338e-07 3.43171e-08 2.50186e-07       81.633        4.091

   A    I                     A    I                     A    I                  
-------------------------- -------------------------- -------------------------- 
   9    5 -0.0188632812293    6    4 -0.0040329729587   28    4  0.0031770311432 
  16    5 -0.0138062632626   12    3 -0.0039213612258   15    2  0.0027559736228 
   8    4  0.0107584473950   34    4 -0.0037399345607   11    3 -0.0022484642886 
  15    4 -0.0103889202686   10    2  0.0036396205627    7    3 -0.0021167744802 
  33    3  0.0071792647655   34    2 -0.0034879340695   25    2 -0.0020925479030 

   A    B    I    J                     A    B    I    J                  
------------------------------------ ------------------------------------ 
  27   27    5    5 -0.0349557822628   15   15    4    4 -0.0190380387685 
  20   20    3    3 -0.0267008120076    9   27    5    5 -0.0186972542205 
  20   20    4    4 -0.0218360179861   27    9    5    5 -0.0186972542205 
  12   12    3    3 -0.0208215889340   23   23    4    4 -0.0174518004436 
  28   28    4    4 -0.0205930097496   27   28    5    4 -0.0171102094103 
   9    9    5    5 -0.0203765727438   28   27    4    5 -0.0171102094103 
  20   12    3    3 -0.0196274842615   16   27    5    5 -0.0165887447290 
  12   20    3    3 -0.0196274842615 

It.  Correlation Energy T1 Residual T2 Residual T3 Residual CPU Time (s) Walltime (s)
-------------------------------------------------------------------------------------
  6  -0.233232700704990 3.88943e-08 4.51658e-09 3.62172e-08       81.869        4.103

CC4 iterations converged in 6 cycles and 25.720 seconds (4.287 s/it.) at 1.376 Gflops/sec

Total CC4 energy: -76.274534730353778

             _
Formation of H took 0.205 seconds at 1.923 Gflops/sec

Searching for 1 roots in irrep 1

EOMEE-CCSD guess vector:

   A    I                  
-------------------------- 
   6    4  1.0000000000000 

Beginning iterative solution of EOMEE-CC4 equations:

It.  Correlation Energy R1 Residual R2 Residual R3 Residual CPU Time (s) Walltime (s)
-------------------------------------------------------------------------------------
  1   0.516811413535825 3.69391e-02 7.68800e-02 3.72252e-03      155.024        8.024
  2   0.410691583567880 7.58403e-02 2.72776e-02 5.78158e-03      153.303        7.724
  3   0.380481759816188 1.93347e-02 9.20077e-03 5.07484e-03      147.356        7.385
  4   0.379130130816678 2.32877e-02 4.85897e-03 4.89354e-03      148.338        7.434
  5   0.368738887723802 4.78260e-03 5.33249e-03 1.72487e-03      149.501        7.493
  6   0.365042763192382 3.64179e-03 2.46880e-03 8.59198e-04      149.609        7.498
  7   0.365468626515589 3.05299e-03 1.95283e-03 4.24946e-04      150.236        7.529
  8   0.365614641981226 2.10798e-03 1.22640e-03 3.27317e-04      151.736        7.605
  9   0.365255343401694 1.22171e-03 8.75982e-04 1.63197e-04      153.349        7.685
 10   0.365180840300578 6.45250e-04 5.11943e-04 1.15638e-04      155.937        7.815
 11   0.365303272549277 2.95610e-04 3.44781e-04 6.22614e-05      157.750        7.906
Locking on root: 0.365326400805709
 12   0.365326400805709 1.67170e-04 2.04720e-04 3.29046e-05      159.743        8.006
 13   0.365300677397407 6.65550e-05 1.02205e-04 1.65842e-05      163.019        8.170
 14   0.365294435511358 1.84690e-05 4.14990e-05 6.59379e-06      165.180        8.278
 15   0.365299024275708 1.22631e-05 1.40449e-05 2.56526e-06      167.884        8.414
 16   0.365299632808868 7.39383e-06 4.71375e-06 9.31147e-07      170.870        8.564

EOMEE-CC4 iterations converged in 16 cycles and 125.531 seconds (7.846 s/it.) at 1.475 Gflops/sec

EOMEE-CC4 excitation energy:   0.365299632808870 (  9.940308364241393 eV)
Total EOMEE-CC4 energy:      -75.909235097544908

Converged root:

   A    I                     A    I                     A    I                  
-------------------------- -------------------------- -------------------------- 
   6    4 -0.5901723969814   16    5  0.0318105785060   12    3  0.0121441122521 
  10    4  0.2470052701072   13    4 -0.0296682942185   20    3  0.0107789512610 
   8    4  0.1783709655497    6    2  0.0228679217005   27    5  0.0104813918956 
   9    5  0.0939324850437   15    4 -0.0163462100194   21    4  0.0103978904256 
  18    4 -0.0643873711989   10    2 -0.0160007654066   25    4  0.0082932541055 

   A    B    I    J                     A    B    I    J                  
------------------------------------ ------------------------------------ 
   8    6    4    4  0.0580879681632   16    6    5    4 -0.0372309412202 
   6    8    4    4  0.0580879681632    6   16    4    5 -0.0372309412202 
  15    6    4    4 -0.0542317311602    6    6    4    4 -0.0347881277255 
   6   15    4    4 -0.0542317311602   27    6    5    4 -0.0309109473341 
   9    6    5    4 -0.0485306893828    6   27    4    5 -0.0309109473341 
   6    9    4    5 -0.0485306893828    8    8    4    4 -0.0292316645227 
  12    6    3    4 -0.0380235243273   19    6    3    4 -0.0290852259109 
   6   12    4    3 -0.0380235243273 

Searching for 1 roots in irrep 2

EOMEE-CCSD guess vector:

   A    I                  
-------------------------- 
   6    5  1.0000000000000 

Beginning iterative solution of EOMEE-CC4 equations:

It.  Correlation Energy R1 Residual R2 Residual R3 Residual CPU Time (s) Walltime (s)
-------------------------------------------------------------------------------------
  1   0.434830852474984 3.66175e-02 8.88973e-02 2.38701e-03      143.342        7.184
  2   0.325790405101140 7.34483e-02 3.57163e-02 5.25451e-03      143.252        7.179
  3   0.292869289434999 1.82424e-02 1.35027e-02 5.27555e-03      143.695        7.202
  4   0.290926165163922 2.29972e-02 6.16886e-03 4.97629e-03      143.957        7.215
  5   0.280333202182454 4.62605e-03 6.25295e-03 1.63269e-03      145.067        7.270
  6   0.276403433825252 2.25400e-03 1.66730e-03 5.45531e-04      146.711        7.353
  7   0.276807094429714 1.15213e-03 8.28564e-04 2.21182e-04      148.184        7.427
  8   0.276903310067640 6.02864e-04 4.55413e-04 1.23738e-04      148.266        7.431
  9   0.276738983366651 2.76762e-04 2.25180e-04 5.90476e-05      149.844        7.510
Locking on root: 0.276714583729844
 10   0.276714583729844 1.62841e-04 9.43928e-05 2.35462e-05      151.380        7.587
 11   0.276743559549436 8.94232e-05 4.30023e-05 1.57137e-05      153.966        7.716
 12   0.276752530325963 2.87109e-05 2.19546e-05 5.84371e-06      156.893        7.864
 13   0.276748152979767 1.71659e-05 1.20512e-05 3.12001e-06      160.379        8.038
 14   0.276747275046489 7.58043e-06 5.82509e-06 1.55915e-06      163.029        8.171

EOMEE-CC4 iterations converged in 14 cycles and 105.147 seconds (7.510 s/it.) at 1.339 Gflops/sec

EOMEE-CC4 excitation energy:   0.276747275046489 (  7.530676206195265 eV)
Total EOMEE-CC4 energy:      -75.997787455307289

Converged root:

   A    I                     A    I                     A    I                  
-------------------------- -------------------------- -------------------------- 
   6    5  0.5879951881888   13    5  0.0360454535054   34    5 -0.0052386451094 
  10    5 -0.2381478085007   25    5 -0.0169549417090    9    2  0.0050751458526 
   8    5 -0.2176452930808   21    5 -0.0115868486209   40    5  0.0035068826877 
  18    5  0.0710200549999    9    4 -0.0065766694100   16    2  0.0034768278173 
  15    5  0.0395732495553   23    5 -0.0057067780259   14    3  0.0031385282280 

   A    B    I    J                     A    B    I    J                  
------------------------------------ ------------------------------------ 
   9    6    5    5  0.0656238747415   12    6    3    5  0.0390087516936 
   6    9    5    5  0.0656238747415    6   12    5    3  0.0390087516936 
  16    6    5    5  0.0471767076193    6   15    5    4  0.0385393810228 
   6   16    5    5  0.0471767076193   15    6    4    5  0.0385393810228 
   6    8    5    4 -0.0430424732925   19    6    3    5  0.0304358956622 
   8    6    4    5 -0.0430424732925    6   19    5    3  0.0304358956622 
  27    6    5    5  0.0391760981258   11    6    3    5  0.0299710227860 
   6   27    5    5  0.0391760981258 

Searching for 1 roots in irrep 3

EOMEE-CCSD guess vector:

   A    I                  
-------------------------- 
   7    4  1.0000000000000 

Beginning iterative solution of EOMEE-CC4 equations:

It.  Correlation Energy R1 Residual R2 Residual R3 Residual CPU Time (s) Walltime (s)
-------------------------------------------------------------------------------------
  1   0.568271818126091 2.84415e-02 7.69954e-02 3.85982e-03      146.003        7.317
  2   0.465242121527017 6.36813e-02 2.76634e-02 5.75225e-03      146.352        7.335
  3   0.440806442126231 1.90342e-02 8.12824e-03 6.30940e-03      147.054        7.370
  4   0.442681860989513 2.40909e-02 4.70506e-03 4.56643e-03      147.676        7.401
  5   0.434017802194601 6.80295e-03 5.24628e-03 1.79509e-03      149.114        7.473
  6   0.429694200844396 3.40469e-03 2.80314e-03 1.02958e-03      149.751        7.505
  7   0.430153697734967 2.24738e-03 1.82379e-03 4.69283e-04      151.352        7.585
  8   0.430381012121587 1.29496e-03 9.37314e-04 2.63627e-04      152.501        7.643
  9   0.430123603781833 5.99987e-04 6.41156e-04 1.61798e-04      154.355        7.736
 10   0.430018051143233 3.54694e-04 3.33119e-04 7.05455e-05      156.149        7.826
 11   0.430086542919686 1.35040e-04 1.73728e-04 3.91579e-05      157.847        7.911
Locking on root: 0.430113040848186
 12   0.430113040848186 8.61648e-05 5.48876e-05 1.73976e-05      160.319        8.035
 13   0.430105079746992 6.96886e-05 3.28135e-05 7.06492e-06      162.715        8.155
 14   0.430098812320213 4.35175e-05 1.43587e-05 4.94395e-06      165.680        8.304
 15   0.430102919591570 2.04479e-05 1.05173e-05 3.57328e-06      168.901        8.465
 16   0.430104594892850 7.59500e-06 8.77596e-06 1.27656e-06      172.149        8.628

EOMEE-CC4 iterations converged in 16 cycles and 124.689 seconds (7.793 s/it.) at 1.364 Gflops/sec

EOMEE-CC4 excitation energy:   0.430104594892853 ( 11.703741033731111 eV)
Total EOMEE-CC4 energy:      -75.844430135460925

Converged root:

   A    I                     A    I                     A    I                  
-------------------------- -------------------------- -------------------------- 
   7    4 -0.6055079893742   17    4 -0.0227265663534   21    3 -0.0086722540127 
  11    4 -0.2337781807648   20    4 -0.0198617753495   13    3  0.0082003781190 
  12    4 -0.1761049662031    7    2  0.0190979506044   11    2  0.0070284989672 
  19    4 -0.0559351953769   26    4 -0.0182936987513    6    3 -0.0059795195386 
  14    5  0.0247849359879   24    5 -0.0090564040091   18    3  0.0057298781338 

   A    B    I    J                     A    B    I    J                  
------------------------------------ ------------------------------------ 
   9    7    5    4 -0.0544584805354   12    7    3    4 -0.0389366613421 
   7    9    4    5 -0.0544584805354    7   12    4    3 -0.0389366613421 
   7    8    4    4  0.0539474310217   27    7    5    4 -0.0319140287123 
   8    7    4    4  0.0539474310217    7   27    4    5 -0.0319140287123 
   7   15    4    4 -0.0529027047662   11    7    3    4 -0.0317195246114 
  15    7    4    4 -0.0529027047662    7   11    4    3 -0.0317195246114 
  16    7    5    4 -0.0389519587887   19    7    3    4 -0.0305479296063 
   7   16    4    5 -0.0389519587887 

Searching for 1 roots in irrep 4

EOMEE-CCSD guess vector:

   A    I                  
-------------------------- 
   7    5  1.0000000000000 

Beginning iterative solution of EOMEE-CC4 equations:

It.  Correlation Energy R1 Residual R2 Residual R3 Residual CPU Time (s) Walltime (s)
-------------------------------------------------------------------------------------
  1   0.488559253033555 2.86394e-02 8.98356e-02 2.34695e-03      142.318        7.133
  2   0.381791533162518 6.30577e-02 3.63281e-02 5.26855e-03      142.709        7.152
  3   0.355104318975591 1.88268e-02 1.21080e-02 5.63391e-03      143.391        7.186
  4   0.356924426811883 2.48133e-02 6.46942e-03 4.06111e-03      143.981        7.216
  5   0.347365311489550 9.27882e-03 7.84660e-03 1.89352e-03      144.907        7.262
  6   0.342024666565597 4.59329e-03 2.27335e-03 7.66289e-04      145.939        7.314
  7   0.342599782500338 3.18531e-03 1.40495e-03 3.55534e-04      147.186        7.377
  8   0.342760585872370 1.72065e-03 1.09356e-03 3.17805e-04      148.830        7.459
  9   0.342345501484107 6.87935e-04 6.19894e-04 1.52375e-04      150.484        7.542
 10   0.342287509792906 3.61506e-04 2.68473e-04 6.65069e-05      152.557        7.646
 11   0.342370819154962 5.44076e-05 8.10159e-05 4.39149e-05      154.866        7.762
Locking on root: 0.342386720971646
 12   0.342386720971646 1.89502e-05 2.12243e-05 9.62923e-06      157.099        7.873
 13   0.342377195640440 4.91288e-06 1.01889e-05 5.00334e-06      159.685        8.003
 14   0.342376165605754 2.09406e-06 4.54773e-06 1.53626e-06      162.347        8.136

EOMEE-CC4 iterations converged in 14 cycles and 105.062 seconds (7.504 s/it.) at 1.304 Gflops/sec

EOMEE-CC4 excitation energy:   0.342376165605756 (  9.316529109320133 eV)
Total EOMEE-CC4 energy:      -75.932158564748022

Converged root:

   A    I                     A    I                     A    I                  
-------------------------- -------------------------- -------------------------- 
   7    5 -0.5930903816313   17    5 -0.0212785829642   27    3  0.0020305208225 
  11    5 -0.2308179957974   26    5 -0.0177935566729   14    4  0.0016569221861 
  12    5 -0.2169322101994   33    5 -0.0068686166691   35    5 -0.0008569318120 
  19    5 -0.0634471518696   14    2 -0.0063615025790   16    3 -0.0008373728231 
  20    5 -0.0384085931347   29    5 -0.0031990179458   41    5 -0.0007367600787 

   A    B    I    J                     A    B    I    J                  
------------------------------------ ------------------------------------ 
   7    9    5    5 -0.0658622044407   12    7    3    5 -0.0390513584528 
   9    7    5    5 -0.0658622044407    7   12    5    3 -0.0390513584528 
   7   16    5    5 -0.0454424969853    7   15    5    4 -0.0379990717326 
  16    7    5    5 -0.0454424969853   15    7    4    5 -0.0379990717326 
   7    8    5    4  0.0443104686055   11    7    3    5 -0.0328233276065 
   8    7    4    5  0.0443104686055    7   11    5    3 -0.0328233276065 
   7   27    5    5 -0.0398027866255   19    7    3    5 -0.0313213373774 
  27    7    5    5 -0.0398027866255 

 @CHECKOUT-I, Total execution time (CPU/WALL):     9698.65/     490.15 seconds.
--executable xncc finished with status     0 in      496.52 seconds (walltime).
  The final electronic energy is       -75.932158564748022 a.u. 
  This computation required                          528.46 seconds (walltime).
