 --invoking executable--
/home/CEISAM/blondel-a/soft/cfour2.1/cfour2.1-serial-mkl/bin/xjoda


   *************************************************************************
         <<<     CCCCCC     CCCCCC   |||     CCCCCC     CCCCCC   >>>
       <<<      CCC        CCC       |||    CCC        CCC         >>>
      <<<      CCC        CCC        |||   CCC        CCC            >>>
    <<<        CCC        CCC        |||   CCC        CCC              >>>
      <<<      CCC        CCC        |||   CCC        CCC            >>>
       <<<      CCC        CCC       |||    CCC        CCC         >>>
         <<<     CCCCCC     CCCCCC   |||     CCCCCC     CCCCCC   >>>
   *************************************************************************

     ****************************************************************
     * CFOUR Coupled-Cluster techniques for Computational Chemistry *
     ****************************************************************
 

   Department of Chemistry                Institut fuer Physikalische Chemie
   University of Florida                  Universitaet Mainz
   Gainesville, FL 32611, USA             D-55099 Mainz, Germany

   Department of Chemistry                Fakultaet fuer Chemie und Biowiss.
   Johns Hopkins University               Karlsruher Institut fuer Technologie
   Baltimore, MD 21218, USA               D-76131 Karlsruhe, Germany

   Department of Chemistry                Department of Physical Chemistry
   Southern Methodist University          Eotvos Lorand University
   Dallas, TX 75275, USA                  H-1053 Budapest, Hungary

 
                       Version 2.1
 
                     nazare095                                         
                     Thu Mar 18 14:42:08 CET 2021                      
                     integer*8 version is running
 
********************************************************************************
*                          Input from ZMAT file                                *
********************************************************************************
Ketene -GS                                                                      
C     0.0000000000            0.0000000000           -1.2494205467              
O     0.0000000000            0.0000000000            0.8926669184              
                                                                                
*CFOUR(COORD=CARTESIAN,UNITS=BOHR                                               
       MEMORY=110,MEM_UNIT=GB,CC_PROG=NCC                                       
       FROZEN_CORE=1                                                            
       CALC=CCSDTQ,BASIS=AUG-PVTZ                                               
       SCF_CONV=8,CC_CONV=7,ESTATE_CONV=5,ESTATE_MAXCYC=120                     
       EXCITE=EOMEE,ESTATE_SYM=3/2/0/2)                                         
                                                                                
********************************************************************************
    -------------------------------------------------------------------
                    CFOUR Control Parameters 
    -------------------------------------------------------------------
        External           Internal           Value            Units
          Name               Name
    -------------------------------------------------------------------
       ABCDTYPE             IABCDT         STANDARD    [  0]    ***   
       ANHARMONIC           IANHAR         OFF         [  0]    ***   
       ANH_ALGORIT          IANALG         STANDARD    [  0]    ***   
       ANH_DERIVAT          IANDER         SECOND      [  1]    ***   
       ANH_MODE             ANHMOD         VIBRATION   [  0]    ***   
       ANH_STEPSIZ          ICUBST             50000          x 10-6  
       ANH_SYMMETR          IANHSM         ABELIAN     [  0]    ***   
       AO_LADDERS           IAOLAD         SINGLEPASS  [  1]    ***   
       AV_SCF               IAVSCF         OFF         [  0]    ***   
       BASIS                IBASIS         AUG-PVTZ    [ 34]    ***   
       BOTHVECTORS          BOTHVC         OFF         [  0]    ***   
       BOX_POTENT           IPIAB          OFF         [  0]    ***   
       BREIT                IBREIT         OFF         [  0]    ***   
       BRUCK_CONV           IBRTOL          10D-  4             ***   
       BRUECKNER            IBRKNR         OFF         [  0]    ***   
       BUFFERSIZE           IBUFFS              4096            ***   
       CACHE_RECS           ICHREC             10               ***   
       CALCLEVEL            ICLLVL         CCSDTQ      [ 46]    ***   
       CCORBOPT             ICCORB         OFF         [  0]  x 0.01  
       CC_CONV              ICCCNV          10D-  7             ***   
       CC_EXPORDER          ICCEOR              5               ***   
       CC_EXTRAPOL          ICCEXT         DIIS        [  1]    ***   
       CC_GUESS             ICCGES         MP2         [  0]    ***   
       CC_MAXCYC            ICCCYC            100              cycles 
       CC_PROGRAM           ICCPRO         NCC         [  5]    ***   
       CHARGE               ICHRGE              0               ***   
       CHOLESKY             ICHOLE         OFF         [  0]    ***   
       CIS_CONV             ICISTL              5               ***   
       COMM_SIZE            IPSIZE            ***               ***   
       CONSTANT             ICONST         OLD         [  1]    ***   
       CONTINUUM            ICONTU         NONE        [  0]    ***   
       CONTRACTION          ICNTYP         GENERAL     [  1]    ***   
       COORDINATES          ICOORD         CARTESIAN   [  1]    ***   
       CPHF_CONVER          ICPHFT          10D- 16             ***   
       CPHF_MAXCYC          ICPHFC             64              cycles 
       CUBIC                ICUBIC         OFF         [  0]    ***   
       CURVILINEAR          ICURVY         OFF         [  0]    ***   
       DBOC                 IDBOC          OFF         [  0]    ***   
       DCT                  IDCT           OFF         [  0]    ***   
       DERIV_LEV            IDRLVL         ZERO        [  0]    ***   
       DEVMEM_SIZE          IDVMEM         *********           MByte  
       DIAG_MRCC            IEOMST          10D-  0             ***   
       DIFF_TYPE            IDIFTY         RELAXED     [  0]    ***   
       DIRECT               IDIRCT         OFF         [  0]    ***   
       DROPMO               IDRPMO      NONE         
       ECP                  IECP           OFF         [  0]    ***   
       EIGENVECTOR          IVEC                1               ***   
       EL_ANHARM            IELANH         OFF         [  0]    ***   
       EOMFOLLOW            IEOMSR         ENERGY      [  0]    ***   
       EOMIP                IEOMIP         OFF         [  0]    ***   
       EOMLEVEL             HBARFM         SAME        [  0]    ***   
       EOM_MRCC             IMRCCE         NEW         [  1]    ***   
       EOM_NONIT            EOMNON         OFF         [  0]    ***   
       EOM_NSING            IEOMSI          10D-  0             ***   
       EOM_NSTATES          IMRCCD         DAVIDSON    [  0]    ***   
       EOM_NTRIP            IEOMTR          10D-  0             ***   
       EOM_ORDER            IEXORD         ENERGY      [  0]    ***   
       EOM_PROPSTA          IEOMST              0               ***   
       ESTATE_CONV          IEXTOL          10D-  5             ***   
       ESTATE_DIAG          IEXDIG         ITERATIVE   [  0]    ***   
       ESTATE_LOCK          IESLOC         ON          [  1]    ***   
       ESTATE_MAXC          IEXMXC            120               ***   
       ESTATE_PROP          IEXPRP         OFF         [  0]    ***   
       ESTATE_SYM           IEXSYM   3,  2,  0,  2,
       EVAL_HESS            IRECAL              0            # of cyc.
       EXCITATION           IEXCIT              0               ***   
       EXCITE               IEXCIT         EOMEE       [  3]    ***   
       EXTERN_POT           IEXPOT         OFF         [  0]    ***   
       FCGRADNEW            IFCGNW         OFF         [  0]    ***   
       FC_FIELD             IFINFC              0             x 10-6  
       FD_CALTYPE           IFDCAL         GRADONLY    [  0]    ***   
       FD_PROJECT           IFDPRJ         OFF         [  1]    ***   
       FD_STEPSIZE          IDISFD              0            10-4 bohr
       FD_USEGROUP          IFDGRP         FULL        [  0]    ***   
       FILE_RECSIZ          IFLREC              4096           words  
       FINITE_PERT          IFIPER              0             x 10-6  
       FIXGEOM              IFIXGM         OFF         [  0]    ***   
       FOCK                 IFOCK          AO          [  1]    ***   
       FREQ_ALGORI          IVIALG         STANDARD    [  0]    ***   
       FROZEN_CORE          IFROCO         ON          [  1]    ***   
       GAMMA_ABCD           IGABCD         STORE       [  0]    ***   
       GAMMA_ABCI           IGABCI         STORE       [  0]    ***   
       GENBAS_1             IGNBS1              0               ***   
       GENBAS_2             IGNBS2              0               ***   
       GENBAS_3             IGNBS3              0               ***   
       GENBAS_4             IGNBS4              0               ***   
       GEO_CONV             ICONTL              5              H/bohr 
       GEO_MAXCYC           IOPTCY             50               ***   
       GEO_MAXSTEP          IMXSTP            300            millibohr
       GEO_METHOD           INR            SINGLE_POINT[  5]    ***   
       GIAO                 IGIAO          OFF         [  1]    ***   
       GIMIC                IGIMIC         OFF         [  0]    ***   
       GRID                 IGRID          OFF         [  0]    ***   
       GRID_ALGO            IGALGO         SERIAL      [  0]    ***   
       GUESS                IGUESS         MOREAD      [  0]    ***   
       HBAR                 IHBAR          ON          [  1]    ***   
       HESS_TYPE            IHESTP         SCF         [  0]    ***   
       HF2_FILE             IHF2Fl         USE         [  1]    ***   
       HFSTABILITY          ISTABL         OFF         [  0]    ***   
       INCORE               INCORE         OFF         [  0]    ***   
       INPUT_MRCC           IMRCC          ON          [  1]    ***   
       INTEGRALS            INTTYP         VMOL        [  1]    ***   
       JODA_PRINT           IJPRNT              0               ***   
       KEYWORD_OUT          IDMPKW         NO          [  0]    ***   
       LINDEP_TOL           ILINDP              8               ***   
       LINEQ_CONV           IZTACN          10D-  7           cycles  
       LINEQ_EXPOR          ILMAXD              5               ***   
       LINEQ_MAXCY          ILMAXC            100               ***   
       LINEQ_TYPE           ILTYPE         DIIS        [  1]    ***   
       LOCK_ORBOCC          ILOCOC         OFF         [  0]    ***   
       MEMORY_SIZE          IMEMSZ         *********           words  
       MEM_UNIT             IMEMU          GB          [  3]    ***   
       MRCC                 IMRCCC         OFF         [  0]    ***   
       MULTIPLICTY          IMULTP              1               ***   
       NACOUPLING           IVCOUP         OFF         [  0]    ***   
       NEGEVAL              IDIE           ABORT       [  0]    ***   
       NEWNORM              INEWNO         OFF         [  0]    ***   
       NON-HF               INONHF         OFF         [  0]    ***   
       NTOP_TAMP            ITOPT2             15               ***   
       NUC_MODEL            INUCMO         POINT       [  0]    ***   
       OCCUPATION           IOCCU   ESTIMATED BY SCF 
       OPEN-SHELL           IOPEN          SPIN-ORBITAL[  0]    ***   
       OPTVIB               IOPTVB         OFF         [  0]    ***   
       ORBITALS             IORBTP         STANDARD    [  0]    ***   
       PARALLEL             IPARAL         ON          [  1]    ***   
       PARA_INT             IPINTS         ON          [  1]    ***   
       PARA_PRINT           IPPRIN              0               ***   
       PERT_ORB             IPTORB         STANDARD    [  0]    ***   
       POINTS               IGRDFD              0               ***   
       PRINT                IPRNT               0               ***   
       PROPS                IPROPS         OFF         [  0]    ***   
       PROP_INTEGR          IINTYP         INTERNAL    [  0]    ***   
       PSI                  IPSI           OFF         [  0]    ***   
       QC_ALG               IQCALG         FLM         [  0]    ***   
       QC_LINALG            IQCLIN         TRIDIAG     [  2]    ***   
       QC_MAXCYC            IQCMAX          10D-100           cycles  
       QC_MAXSCFCY          IQCMSC          10D- 15           cycles  
       QC_RTRUST            IQCRTR          10D-  0           x 10-3  
       QC_SKIPSCF           IQCSKI         OFF         [  0]    ***   
       QC_START             IQCSTA          10D-  1             ***   
       QRHFGUESS            IQGUES         OFF         [  0]    ***   
       QUARTIC              IQUART         OFF         [  0]    ***   
       RAMAN_INT            IRAMIN         OFF         [  0]    ***   
       RAMAN_ORB            IRAMRE         UNRELAXED   [  0]    ***   
       RDO                  IRDOFM         OFF         [  0]    ***   
       REDUCE_REPR          REDREP         Ir          [  0]    ***   
       REFERENCE            IREFNC         RHF         [  0]    ***   
       RELATIVIST           IRELAT         OFF         [  0]    ***   
       RELAX_DENS           IRDENS         OFF         [  0]    ***   
       RESET_FLAGS          IRESET         OFF         [  0]    ***   
       RESTART_CC           ICCRES         OFF         [  0]    ***   
       ROT_EVEC             ROTVEC              0               ***   
       SAVE_INTS            ISVINT         OFF         [  0]    ***   
       SCALE_ON             ISTCRT              0               ***   
       SCF_CONV             ISCFCV          10D-  8             ***   
       SCF_DAMPING          IDAMP               0             x 10-3  
       SCF_EXPORDE          IRPPOR              6               ***   
       SCF_EXPSTAR          IRPPLS              8               ***   
       SCF_EXTRAPO          IRPP           ON          [  1]    ***   
       SCF_MAXCYC           ISCFCY            150              cycles 
       SCF_NOSTOP           ISCFST         OFF         [  0]    ***   
       SCF_PRINT            ISCFPR              0               ***   
       SCF_PROG             ISCFPR         SCF         [  0]    ***   
       SD_FIELD             IFINSD              0             x 10-6  
       SOPERT               IPERSO         OFF         [  0]    ***   
       SPHERICAL            IDFGHI         ON          [  1]    ***   
       SPINORBIT            ISOCAL         OFF         [  0]    ***   
       SPINROTATIO          ISRCON         OFF         [  0]    ***   
       SPIN_FLIP            ISPFLP         OFF         [  0]    ***   
       SPIN_ORBIT           ISPORB         OFF         [  0]    ***   
       SPIN_SCAL            ISCSMP         OFF         [  0]    ***   
       STEEPSCALE           ISTPSC              1000          x 10-3  
       SUBGROUP             ISUBGP         DEFAULT     [  0]    ***   
       SUBGRPAXIS           ISBXYZ         X           [  0]    ***   
       SYMMETRY             ISYM           ON          [  0]    ***   
       SYM_CHECK            ISYMCK         OVERRIDE    [  1]    ***   
       T3_EXTRAPOL          IT3EXT         ON          [  1]    ***   
       T4_EXTRAPOL          IT4EXP         OFF         [  0]    ***   
       TAMP_SUM             IEVERY              5               ***   
       TESTSUITE            ITESTS         OFF         [  0]    ***   
       THERMOCH             ITHERM         OFF         [  0]    ***   
       TOL_CHOLESK          ITOLCH          10D-  4             ***   
       TRANGRAD             IRESRM         OFF         [  0]    ***   
       TRANS_INV            ITRAIN         USE         [  0]    ***   
       TREAT_PERT           ITREAT         SIMULTANEOUS[  0]    ***   
       TRIP_ALGORI          ITRALG         NORMAL      [  0]    ***   
       UIJ_THRESHO          IUIJTH              1               ***   
       UNITS                IUNITS         BOHR        [  1]    ***   
       UNOS                 IUNOS          OFF         [  0]    ***   
       UPDATE_HESS          IHUPDT         ON          [  1]    ***   
       VIBPHASE             ISETPH         STANDARD    [  0]    ***   
       VIBRATION            IVIB           NO          [  0]    ***   
       VIB_ALGORIT          IGEALG         STANDARD    [  0]    ***   
       VNATORB              IVNORB         OFF         [  0]    ***   
       VTRAN                IVTRAN         FULL/PARTIAL[  0]    ***   
       XFIELD               IXEFLD              0             x 10-6  
       XFORM_TOL            IXFTOL          10D- 11             ***   
       YFIELD               IYEFLD              0             x 10-6  
       ZFIELD               IZEFLD              0             x 10-6  
       ZSCALE_EXP           IZEXPS         OFF         [  0]    ***   
    -------------------------------------------------------------------
  @GETXYZ-I,     2 atoms read from ZMAT.
   Rotational constants (in cm-1): 
          1.9135333977             1.9135333977
   Rotational constants (in MHz): 
      57366.2961120363         57366.2961120363
********************************************************************************
   The full molecular point group is CXv .
   The largest Abelian subgroup of the full molecular point group is C2v .
   The computational point group is C2v .
********************************************************************************


 ----------------------------------------------------------------
         Coordinates used in calculation (QCOMP) 
 ----------------------------------------------------------------
 Z-matrix   Atomic            Coordinates (in bohr)
  Symbol    Number           X              Y              Z
 ----------------------------------------------------------------
     C         6        -0.00000000     0.00000000     1.22388322
     O         8         0.00000000     0.00000000    -0.91820425
 ----------------------------------------------------------------
 
   Interatomic distance matrix (Angstroms) 
 
                 C             O    
                [ 1]        [ 2]
  C    [ 1]     0.00000
  O    [ 2]     1.13354     0.00000
 rotcon2
   Rotational constants (in cm-1): 
          1.9135333977             0.0000000000
   Rotational constants (in MHz): 
      57366.2961120363             0.0000000000
  There are   2 frozen-core orbitals.
  There are   92 basis functions.
 @GEOPT-W, Archive file not created for single-point calculation.
 @CHECKOUT-I, Total execution time (CPU/WALL):        0.12/       1.31 seconds.
--executable xjoda finished with status     0 in        1.80 seconds (walltime).
 --invoking executable--
/home/CEISAM/blondel-a/soft/cfour2.1/cfour2.1-serial-mkl/bin/xvmol
 SERIAL VERSION OF MOLECULE STARTED
********************************************************************************
                    INPUT FROM MOL FILE
********************************************************************************
INTGRL        1    0    1    0    0    0    0    0    0                         
         *** CFOUR Program System (Release V0.1) ***                            
Ketene -GS                                                                      
    2    2 X  Y       0.10E-08              0    0                              
   9999.00      3.00                                                            
          6.00000000    1    4    1    1    1    1                              
C #1  -0.000000000000000   0.000000000000000   1.223883215473396                
   11    5                                                                      
   8236.00000000000       5.310000000000000E-004 -1.130000000000000E-004        
  0.000000000000000E+000  0.000000000000000E+000  0.000000000000000E+000        
   1235.00000000000       4.108000000000000E-003 -8.780000000000000E-004        
  0.000000000000000E+000  0.000000000000000E+000  0.000000000000000E+000        
   280.800000000000       2.108700000000000E-002 -4.540000000000000E-003        
  0.000000000000000E+000  0.000000000000000E+000  0.000000000000000E+000        
   79.2700000000000       8.185300000000000E-002 -1.813300000000000E-002        
  0.000000000000000E+000  0.000000000000000E+000  0.000000000000000E+000        
   25.5900000000000       0.234817000000000      -5.576000000000000E-002        
  0.000000000000000E+000  0.000000000000000E+000  0.000000000000000E+000        
   8.99700000000000       0.434401000000000      -0.126895000000000             
  0.000000000000000E+000  0.000000000000000E+000  0.000000000000000E+000        
   3.31900000000000       0.346129000000000      -0.170352000000000             
  0.000000000000000E+000  0.000000000000000E+000  0.000000000000000E+000        
  0.905900000000000       3.937800000000000E-002  0.140382000000000             
   1.00000000000000       0.000000000000000E+000  0.000000000000000E+000        
  0.364300000000000      -8.983000000000000E-003  0.598684000000000             
  0.000000000000000E+000  0.000000000000000E+000  0.000000000000000E+000        
  0.128500000000000       2.385000000000000E-003  0.395389000000000             
  0.000000000000000E+000   1.00000000000000       0.000000000000000E+000        
  4.402000000000000E-002  0.000000000000000E+000  0.000000000000000E+000        
  0.000000000000000E+000  0.000000000000000E+000   1.00000000000000             
    6    4                                                                      
   18.7100000000000       1.403100000000000E-002  0.000000000000000E+000        
  0.000000000000000E+000  0.000000000000000E+000                                
   4.13300000000000       8.686600000000000E-002  0.000000000000000E+000        
  0.000000000000000E+000  0.000000000000000E+000                                
   1.20000000000000       0.290216000000000       0.000000000000000E+000        
  0.000000000000000E+000  0.000000000000000E+000                                
  0.382700000000000       0.501008000000000        1.00000000000000             
  0.000000000000000E+000  0.000000000000000E+000                                
  0.120900000000000       0.343406000000000       0.000000000000000E+000        
   1.00000000000000       0.000000000000000E+000                                
  3.569000000000000E-002  0.000000000000000E+000  0.000000000000000E+000        
  0.000000000000000E+000   1.00000000000000                                     
    3    3                                                                      
   1.09700000000000        1.00000000000000       0.000000000000000E+000        
  0.000000000000000E+000                                                        
  0.318000000000000       0.000000000000000E+000   1.00000000000000             
  0.000000000000000E+000                                                        
  0.100000000000000       0.000000000000000E+000  0.000000000000000E+000        
   1.00000000000000                                                             
    2    2                                                                      
  0.761000000000000        1.00000000000000       0.000000000000000E+000        
  0.268000000000000       0.000000000000000E+000   1.00000000000000             
          8.00000000    1    4    1    1    1    1                              
O #2   0.000000000000000   0.000000000000000  -0.918204249626604                
   11    5                                                                      
   15330.0000000000       5.080000000000000E-004 -1.150000000000000E-004        
  0.000000000000000E+000  0.000000000000000E+000  0.000000000000000E+000        
   2299.00000000000       3.929000000000000E-003 -8.950000000000000E-004        
  0.000000000000000E+000  0.000000000000000E+000  0.000000000000000E+000        
   522.400000000000       2.024300000000000E-002 -4.636000000000000E-003        
  0.000000000000000E+000  0.000000000000000E+000  0.000000000000000E+000        
   147.300000000000       7.918100000000000E-002 -1.872400000000000E-002        
  0.000000000000000E+000  0.000000000000000E+000  0.000000000000000E+000        
   47.5500000000000       0.230687000000000      -5.846300000000000E-002        
  0.000000000000000E+000  0.000000000000000E+000  0.000000000000000E+000        
   16.7600000000000       0.433118000000000      -0.136463000000000             
  0.000000000000000E+000  0.000000000000000E+000  0.000000000000000E+000        
   6.20700000000000       0.350260000000000      -0.175740000000000             
  0.000000000000000E+000  0.000000000000000E+000  0.000000000000000E+000        
   1.75200000000000       4.272800000000000E-002  0.160934000000000             
   1.00000000000000       0.000000000000000E+000  0.000000000000000E+000        
  0.688200000000000      -8.154000000000000E-003  0.603418000000000             
  0.000000000000000E+000  0.000000000000000E+000  0.000000000000000E+000        
  0.238400000000000       2.381000000000000E-003  0.378765000000000             
  0.000000000000000E+000   1.00000000000000       0.000000000000000E+000        
  7.376000000000001E-002  0.000000000000000E+000  0.000000000000000E+000        
  0.000000000000000E+000  0.000000000000000E+000   1.00000000000000             
    6    4                                                                      
   34.4600000000000       1.592800000000000E-002  0.000000000000000E+000        
  0.000000000000000E+000  0.000000000000000E+000                                
   7.74900000000000       9.974000000000000E-002  0.000000000000000E+000        
  0.000000000000000E+000  0.000000000000000E+000                                
   2.28000000000000       0.310492000000000       0.000000000000000E+000        
  0.000000000000000E+000  0.000000000000000E+000                                
  0.715600000000000       0.491026000000000        1.00000000000000             
  0.000000000000000E+000  0.000000000000000E+000                                
  0.214000000000000       0.336337000000000       0.000000000000000E+000        
   1.00000000000000       0.000000000000000E+000                                
  5.974000000000000E-002  0.000000000000000E+000  0.000000000000000E+000        
  0.000000000000000E+000   1.00000000000000                                     
    3    3                                                                      
   2.31400000000000        1.00000000000000       0.000000000000000E+000        
  0.000000000000000E+000                                                        
  0.645000000000000       0.000000000000000E+000   1.00000000000000             
  0.000000000000000E+000                                                        
  0.214000000000000       0.000000000000000E+000  0.000000000000000E+000        
   1.00000000000000                                                             
    2    2                                                                      
   1.42800000000000        1.00000000000000       0.000000000000000E+000        
  0.500000000000000       0.000000000000000E+000   1.00000000000000             
FINISH                                                                          
 
********************************************************************************
 ONE- AND TWO-ELECTRON INTEGRALS OVER SYMMETRY-ADAPTED AOS ARE CALCULATED.

  SPHERICAL HARMONICS ARE USED.
  
  INTEGRALS LESS THAN  0.10E-13 ARE NEGLECTED.

  NUCLEAR REPULSION ENERGY :   22.4080485891 A.U.
  @MOLECU-I, ONE ELECTRON INTEGRALS (CPU/WALL):        0.02/       0.03 SECONDS.
  @TWOEL-I,     195611 INTEGRALS OF SYMMETRY TYPE  I I I I
  @TWOEL-I,     731801 INTEGRALS OF SYMMETRY TYPE  I J I J
  @TWOEL-I,     399465 INTEGRALS OF SYMMETRY TYPE  I I J J
  @TWOEL-I,     472704 INTEGRALS OF SYMMETRY TYPE  I J K L
  @TWOEL-I, TOTAL NUMBER OF 2-E INTEGRALS    1799581.
  @MOLECU-I, TWO ELECTRON INTEGRALS (CPU/WALL):       32.84/       1.67 SECONDS.
 @CHECKOUT-I, Total execution time (CPU/WALL):       32.87/       1.71 seconds.

Running with 20 threads/proc

--executable xvmol finished with status     0 in        2.19 seconds (walltime).
 --invoking executable--
/home/CEISAM/blondel-a/soft/cfour2.1/cfour2.1-serial-mkl/bin/xvmol2ja
 @GETMEM-I,  Allocated  104904 MB of main memory.
 @CHECKOUT-I, Total execution time (CPU/WALL):        0.23/       0.03 seconds.
--executable xvmol2ja finished with status     0 in        0.51 seconds (walltime).
 --invoking executable--
/home/CEISAM/blondel-a/soft/cfour2.1/cfour2.1-serial-mkl/bin/xvscf
  There are   92 functions in the AO basis.

  There are 4 irreducible representations.

       Irrep        # of functions
         1                 38
         2                 22
         3                 22
         4                 10


  Parameters for SCF calculation: 
        SCF reference function:  RHF  
  Maximum number of iterations:  150
     Full symmetry point group: CXv 
     Computational point group: C2v 
        Initial density matrix: MOREAD                 
     SCF convergence tolerance: 10**(- 8)
  DIIS convergence acceleration:  ON
          Latest start for DIIS:   8
                     DIIS order:   6

  Memory information:     434642 words required.
  Fock matrices are constructed from AO integral file.
 @GETMEM-I,  Allocated       3 MB of main memory.
  Initialization and symmetry analysis required      0.001 seconds.

  @INITGES-I, Occupancies from core Hamiltonian:

          Alpha population by irrep:   5    1    1    0
           Beta population by irrep:   5    1    1    0


 total no. of electrons in initial guess :  0.000000000000000E+000
  --------------------------------------------------------------------
  Iteration         Total Energy            Largest Density Difference
  --------------------------------------------------------------------
       0            22.408048589070660              0.0000000000D+00
   current occupation vector 
     5  1  1  0
     5  1  1  0
       1           -93.621510780875269              0.1313411998D+02
   current occupation vector 
     5  1  1  0
     5  1  1  0
       2           -97.236175059963003              0.1312977378D+02
   current occupation vector 
     5  1  1  0
     5  1  1  0
       3          -103.512888306912956              0.9956581011D+01
   current occupation vector 
     5  1  1  0
     5  1  1  0
       4          -100.486179412931122              0.7252816518D+01
   current occupation vector 
     5  1  1  0
     5  1  1  0
       5          -103.311521249807726              0.5729123518D+01
   current occupation vector 
     5  1  1  0
     5  1  1  0
       6          -100.396662594627841              0.5727365702D+01
   current occupation vector 
     5  1  1  0
     5  1  1  0
       7          -103.257540083875142              0.5523473181D+01
   current occupation vector 
     5  1  1  0
     5  1  1  0
       8          -100.235828625087223              0.5509754073D+01
   current occupation vector 
     5  1  1  0
     5  1  1  0
       9          -110.840848479788377              0.4228957523D+01
   current occupation vector 
     5  1  1  0
     5  1  1  0
      10          -112.258870155354657              0.9643320498D+00
   current occupation vector 
     5  1  1  0
     5  1  1  0
      11          -112.764469500723152              0.5492764774D+00
   current occupation vector 
     5  1  1  0
     5  1  1  0
      12          -112.780203191673451              0.1017426116D+00
   current occupation vector 
     5  1  1  0
     5  1  1  0
      13          -112.780648917639809              0.2247135586D-01
   current occupation vector 
     5  1  1  0
     5  1  1  0
      14          -112.780734160843281              0.1404540202D-01
   current occupation vector 
     5  1  1  0
     5  1  1  0
      15          -112.780737663311385              0.3792533646D-02
   current occupation vector 
     5  1  1  0
     5  1  1  0
      16          -112.780737698394148              0.3209580904D-03
   current occupation vector 
     5  1  1  0
     5  1  1  0
      17          -112.780737699021728              0.3363955982D-04
   current occupation vector 
     5  1  1  0
     5  1  1  0
      18          -112.780737699046540              0.6181954364D-05
   current occupation vector 
     5  1  1  0
     5  1  1  0
      19          -112.780737699047421              0.1380788748D-05
   current occupation vector 
     5  1  1  0
     5  1  1  0
      20          -112.780737699047137              0.1622119914D-06
   current occupation vector 
     5  1  1  0
     5  1  1  0
      21          -112.780737699047506              0.1785641746D-07
   current occupation vector 
     5  1  1  0
     5  1  1  0

  SCF has converged.

 Density matrix saved to file den.dat
 total electron number:   14.0000000000001     
     E(SCF)=      -112.780737699047421              0.4576049539D-08

  Eigenvector printing suppressed.

 @PUTMOS-I, Writing converged MOs to NEWMOS. 
 @PUTMOS-I, Symmetry   1 Full Blocks  9 Partial Blocksize   2
 @PUTMOS-I, Symmetry   2 Full Blocks  5 Partial Blocksize   2
 @PUTMOS-I, Symmetry   3 Full Blocks  5 Partial Blocksize   2
 @PUTMOS-I, Symmetry   4 Full Blocks  2 Partial Blocksize   2
 @PUTFOCK-I, Writing converged Fock matrix to NEWFOCK. 
 @PUTFOCK-I, Symmetry   1 Full Blocks  9 Partial Blocksize   2
 @PUTFOCK-I, Symmetry   2 Full Blocks  5 Partial Blocksize   2
 @PUTFOCK-I, Symmetry   3 Full Blocks  5 Partial Blocksize   2
 @PUTFOCK-I, Symmetry   4 Full Blocks  2 Partial Blocksize   2


 
  ORBITAL EIGENVALUES (ALPHA)  (1H = 27.2113834 eV)

       MO #        E(hartree)               E(eV)           FULLSYM    COMPSYM
       ----   --------------------   --------------------   -------   ---------
    1     1         -20.6684180932        -562.4162490067     SG+        A1 (1)
    2     2         -11.3643108924        -309.2386207706     SG+        A1 (1)
    3     3          -1.5194102344         -41.3452544289     SG+        A1 (1)
    4     4          -0.8044591745         -21.8904470282     SG+        A1 (1)
    5    39          -0.6382302617         -17.3671283473      PI        B1 (2)
    6    61          -0.6382302617         -17.3671283473      PI        B2 (3)
    7     5          -0.5555452437         -15.1171546225     SG+        A1 (1)
  +++++++++++++++++++++++++++++++++++++++++++++++++++++++++++++++++++++++++++++
    8     6           0.0693503575           1.8871191658     SG+        A1 (1)
    9    40           0.0700098361           1.9050644931      PI        B1 (2)
   10    62           0.0700098361           1.9050644931      PI        B2 (3)
   11     7           0.0877478733           2.3877410220     SG+        A1 (1)
   12    41           0.1524638544           4.1487523964      PI        B1 (2)
   13    63           0.1524638544           4.1487523964      PI        B2 (3)
   14     8           0.1852720425           5.0415085815     SG+        A1 (1)
   15    42           0.1981449776           5.3917989536      PI        B1 (2)
   16    64           0.1981449776           5.3917989536      PI        B2 (3)
   17     9           0.2688796499           7.3165872430     SG+        A1 (1)
   18    83           0.2961054844           8.0574398625      DE        A2 (4)
   19    10           0.2961054844           8.0574398625      DE        A1 (1)
   20    11           0.3924118406          10.6780690446     SG+        A1 (1)
   21    43           0.4137873513          11.2597262628      PI        B1 (2)
   22    65           0.4137873513          11.2597262628      PI        B2 (3)
   23    12           0.5001983606          13.6110893671     SG+        A1 (1)
   24    44           0.5079672848          13.8224925415      PI        B1 (2)
   25    66           0.5079672848          13.8224925415      PI        B2 (3)
   26    13           0.6701205551          18.2349073496     SG+        A1 (1)
   27    14           0.7248386346          19.7238619888      DE        A1 (1)
   28    84           0.7248386346          19.7238619888      DE        A2 (4)
   29    15           0.7872570869          21.4223544267     SG+        A1 (1)
   30    45           0.8416439342          22.9022957795      PI        B1 (2)
   31    67           0.8416439342          22.9022957795      PI        B2 (3)
   32    16           1.0059501408          27.3732949626     SG+        A1 (1)
   33    85           1.0473845470          28.5007824764      DE        A2 (4)
   34    17           1.0473845470          28.5007824764      DE        A1 (1)
   35    68           1.0722216087          29.1766332832      PH        B2 (3)
   36    46           1.0722216087          29.1766332832      PH        B1 (2)
   37    47           1.0874918273          29.5921570563      PI        B1 (2)
   38    69           1.0874918273          29.5921570563      PI        B2 (3)
   39    48           1.2200613117          33.1995561252      PI        B1 (2)
   40    70           1.2200613117          33.1995561252      PI        B2 (3)
   41    18           1.2519838437          34.0682123828     SG+        A1 (1)
   42    19           1.2754418008          34.7065358450      DE        A1 (1)
   43    86           1.2754418008          34.7065358450      DE        A2 (4)
   44    20           1.3814526339          37.5912372696     SG+        A1 (1)
   45    49           1.4882031092          40.4960653807      PI        B1 (2)
   46    71           1.4882031092          40.4960653807      PI        B2 (3)
   47    21           1.5326583675          41.7057544590     SG+        A1 (1)
   48    72           2.1425131043          58.3007455202      PH        B2 (3)
   49    50           2.1425131043          58.3007455202      PH        B1 (2)
   50    22           2.1786411054          59.2838384112      DE        A1 (1)
   51    87           2.1786411054          59.2838384112      DE        A2 (4)
   52    51           2.3221731944          63.1895451135      PI        B1 (2)
   53    73           2.3221731944          63.1895451135      PI        B2 (3)
   54    23           2.3582357883          64.1708581828     SG+        A1 (1)
   55    24           2.4350775791          66.2618296147     SG+        A1 (1)
   56    52           2.5691389634          69.9098253406      PI        B1 (2)
   57    74           2.5691389634          69.9098253406      PI        B2 (3)
   58    88           2.5804508197          70.2176365984      DE        A2 (4)
   59    25           2.5804508197          70.2176365984      DE        A1 (1)
   60    26           2.6735074363          72.7498358710     SG+        A1 (1)
   61    53           2.9683229099          80.7721727550      PI        B1 (2)
   62    75           2.9683229099          80.7721727550      PI        B2 (3)
   63    89           3.3941551012          92.3596557768      DE        A2 (4)
   64    27           3.3941551012          92.3596557768      DE        A1 (1)
   65    54           3.4193381465          93.0449212777      PH        B1 (2)
   66    76           3.4193381465          93.0449212777      PH        B2 (3)
   67    28           3.4796987815          94.6874176609     SG+        A1 (1)
   68    55           3.6218824925          98.5564331329      PI        B1 (2)
   69    77           3.6218824925          98.5564331329      PI        B2 (3)
   70    90           3.7397976084         101.7650665607      DE        A2 (4)
   71    29           3.7397976084         101.7650665607      DE        A1 (1)
   72    78           3.9831489504         108.3869932287      PI        B2 (3)
   73    56           3.9831489504         108.3869932287      PI        B1 (2)
   74    30           4.0191699085         109.3671733312     SG+        A1 (1)
   75    31           4.3759262505         119.0750069327     SG+        A1 (1)
   76    79           5.2187033222         142.0081369525      PI        B2 (3)
   77    57           5.2187033222         142.0081369525      PI        B1 (2)
   78    32           5.3267992034         144.9495754193     SG+        A1 (1)
   79    80           6.4667079657         175.9680697905      PH        B2 (3)
   80    58           6.4667079657         175.9680697905      PH        B1 (2)
   81    91           6.7459532682         183.5667207795      DE        A2 (4)
   82    33           6.7459532682         183.5667207795      DE        A1 (1)
   83    34           7.0264218248         191.1986582054      DE        A1 (1)
   84    92           7.0264218248         191.1986582054      DE        A2 (4)
   85    59           7.0965916057         193.1080750151      PI        B1 (2)
   86    81           7.0965916057         193.1080750151      PI        B2 (3)
   87    35           7.2011917713         195.9543902269     SG+        A1 (1)
   88    60           7.4289056022         202.1507985843      PI        B1 (2)
   89    82           7.4289056022         202.1507985843      PI        B2 (3)
   90    36           7.6033547041         206.8977999799     SG+        A1 (1)
   91    37          12.5019092350         340.1942454250     SG+        A1 (1)
   92    38          15.1652338122         412.6669916140     SG+        A1 (1)


  VSCF finished.

 @CHECKOUT-I, Total execution time (CPU/WALL):        6.81/       0.78 seconds.
--executable xvscf finished with status     0 in        1.25 seconds (walltime).
 --invoking executable--
/home/CEISAM/blondel-a/soft/cfour2.1/cfour2.1-serial-mkl/bin/xvtran
 @GETMEM-I,  Allocated  104904 MB of main memory.
  Full RHF integral transformation
  The following   2 MOs will be dropped:
    1  2
  There are  90 active molecular orbitals.
  Transformation of IIII integrals :
  1 pass through the AO integral file was required.
      195611 AO integrals were read.
      259099 MO integrals were written to HF2.
  Transformation of IIJJ integrals :
  1 pass through the AO integral file was required.
      399465 AO integrals were read.
      456144 MO integrals were written to HF2.
  Transformation of IJIJ integrals :
  1 pass through the AO integral file was required.
      731801 AO integrals were read.
      814189 MO integrals were written to HF2.
  Transformation of IJKL integrals :
  1 pass through the AO integral file was required.
      472704 AO integrals were read.
      498604 MO integrals were written to HF2.
  Summary of active molecular orbitals: 
------------------------------------------------------------------------
 
  Index      Eigenvalue    Symmetry    Index      Eigenvalue    Symmetry
------------------------------------------------------------------------
     1        -1.5194102        1        46         1.0874918        2
     2        -0.8044592        1        47         1.2200613        2
     3        -0.5555452        1        48         1.4882031        2
     4        -0.6382303        2        49         2.1425131        2
     5        -0.6382303        3        50         2.3221732        2
     6         0.0693504        1        51         2.5691390        2
     7         0.0877479        1        52         2.9683229        2
     8         0.1852720        1        53         3.4193381        2
     9         0.2688796        1        54         3.6218825        2
    10         0.2961055        1        55         3.9831490        2
    11         0.3924118        1        56         5.2187033        2
    12         0.5001984        1        57         6.4667080        2
    13         0.6701206        1        58         7.0965916        2
    14         0.7248386        1        59         7.4289056        2
    15         0.7872571        1        60         0.0700098        3
    16         1.0059501        1        61         0.1524639        3
    17         1.0473845        1        62         0.1981450        3
    18         1.2519838        1        63         0.4137874        3
    19         1.2754418        1        64         0.5079673        3
    20         1.3814526        1        65         0.8416439        3
    21         1.5326584        1        66         1.0722216        3
    22         2.1786411        1        67         1.0874918        3
    23         2.3582358        1        68         1.2200613        3
    24         2.4350776        1        69         1.4882031        3
    25         2.5804508        1        70         2.1425131        3
    26         2.6735074        1        71         2.3221732        3
    27         3.3941551        1        72         2.5691390        3
    28         3.4796988        1        73         2.9683229        3
    29         3.7397976        1        74         3.4193381        3
    30         4.0191699        1        75         3.6218825        3
    31         4.3759263        1        76         3.9831490        3
    32         5.3267992        1        77         5.2187033        3
    33         6.7459533        1        78         6.4667080        3
    34         7.0264218        1        79         7.0965916        3
    35         7.2011918        1        80         7.4289056        3
    36         7.6033547        1        81         0.2961055        4
    37        12.5019092        1        82         0.7248386        4
    38        15.1652338        1        83         1.0473845        4
    39         0.0700098        2        84         1.2754418        4
    40         0.1524639        2        85         2.1786411        4
    41         0.1981450        2        86         2.5804508        4
    42         0.4137874        2        87         3.3941551        4
    43         0.5079673        2        88         3.7397976        4
    44         0.8416439        2        89         6.7459533        4
    45         1.0722216        2        90         7.0264218        4
------------------------------------------------------------------------
  -1.51941023435551      -0.804459174547025      -0.555545243706087     
 -0.638230261653789      -0.638230261653780       6.935035746057559E-002
  8.774787326662539E-002  0.185272042488743       0.268879649940469     
  0.296105484388348       0.392411840576640       0.500198360628526     
  0.670120555120566       0.724838634584074       0.787257086924915     
   1.00595014080023        1.04738454702922        1.25198384374639     
   1.27544180076308        1.38145263388490        1.53265836749206     
   2.17864110544255        2.35823578829241        2.43507757913914     
   2.58045081965362        2.67350743626750        3.39415510116247     
   3.47969878153766        3.73979760840432        4.01916990854637     
   4.37592625050663        5.32679920342717        6.74595326820054     
   7.02642182482443        7.20119177134098        7.60335470411611     
   12.5019092349768        15.1652338121853       7.000983614281162E-002
  0.152463854387612       0.198144977575993       0.413787351318762     
  0.507967284806279       0.841643934189495        1.07222160866695     
   1.08749182727256        1.22006131173743        1.48820310916922     
   2.14251310428564        2.32217319437958        2.56913896338580     
   2.96832290985284        3.41933814646573        3.62188249248970     
   3.98314895040374        5.21870332224566        6.46670796570036     
   7.09659160566835        7.42890560221518       7.000983614281349E-002
  0.152463854387622       0.198144977576016       0.413787351318820     
  0.507967284806349       0.841643934189521        1.07222160866694     
   1.08749182727273        1.22006131173760        1.48820310916929     
   2.14251310428564        2.32217319437971        2.56913896338582     
   2.96832290985357        3.41933814646574        3.62188249248971     
   3.98314895040372        5.21870332224551        6.46670796570033     
   7.09659160566836        7.42890560221539       0.296105484388333     
  0.724838634584084        1.04738454702921        1.27544180076309     
   2.17864110544256        2.58045081965362        3.39415510116244     
   3.73979760840430        6.74595326820053        7.02642182482448     
 @CHECKOUT-I, Total execution time (CPU/WALL):       12.87/       0.77 seconds.
--executable xvtran finished with status     0 in        1.24 seconds (walltime).
 --invoking executable--
/home/CEISAM/blondel-a/soft/cfour2.1/cfour2.1-serial-mkl/bin/xintprc
 @GETMEM-I,  Allocated  104904 MB of main memory.
  @GMOIAA-I, Processing MO integrals for spin case AA.
  @GMOIAA-I, Generation of integral list completed.
                      TYPE                NUMBER
                      ----               --------
                      PPPP               1606966
                      PPPH                381198
                      PPHH                 23375
                      PHPH                 14623
                      PHHH                  1825
                      HHHH                    49

                     TOTAL               2028036

  @FORMT2-I, Second-order MP correlation energies:
            ------------------------------------------------
            E(SCF)                  =   -112.780737699047 a.u.
            E2(AA)                  =     -0.045677190832 a.u.
            E2(AB)                  =     -0.270257818426 a.u.
            E2(TOT)                 =     -0.361612200091 a.u.
            Total MP2 energy        =   -113.142349899138 a.u.
            ------------------------------------------------
   Largest T2 amplitudes for spin case AB:
       _       _                 _       _                 _       _
   i   j   a   b             i   j   a   b             i   j   a   b
-----------------------------------------------------------------------------
[  5   5  61  61]-0.03906 [  4   4  40  40]-0.03906 [  5   4  61  40]-0.03137
[  4   5  40  61]-0.03137 [  3   3  61  61]-0.02991 [  3   3  40  40]-0.02991
[  5   5  61  60]-0.02006 [  5   5  60  61]-0.02006 [  4   4  40  39]-0.02006
[  4   4  39  40]-0.02006 [  3   3  15  15]-0.01992 [  4   4  41  40]-0.01918
[  4   4  40  41]-0.01918 [  5   5  62  61]-0.01918 [  5   5  61  62]-0.01918
-----------------------------------------------------------------------------
   Norm of T2AB vector (    47537 symmetry allowed elements):  0.2791880945.
-----------------------------------------------------------------------------
 @CHECKOUT-I, Total execution time (CPU/WALL):        4.19/       0.67 seconds.
--executable xintprc finished with status     0 in        1.14 seconds (walltime).
  calling xncc 
 --invoking executable--
/home/CEISAM/blondel-a/soft/cfour2.1/cfour2.1-serial-mkl/bin/xncc
 @GETMEM-I,  Allocated       7 MB of main memory.

Running with 20 threads/proc

Following the lowest-energy eigenvector.
Using discrete restarting.
Using an orthogonal subspace.
Orthogonalizing against previous roots.
Using Modified Gram-Schmidt orthogonalization.

Using DIIS to accelerate the convergence of T1 and T2
Using DIIS to accelerate the convergence of T3
Using immediate high-order contributions
Performing 2 CCSDT sub-iterations
Damping factor for T3: 0.000000
Damping factor for T4: 0.000000

Transposes are coarse-threaded

Memory limit:                102.445 GiB
Minimum memory requirement:    1.085 GiB
Compromise memory amount:    300.050 GiB
Optimal memory requirement:  309.041 GiB

List              Location   Size        Cached Hunks Est. Disk I/O
----------------- ---------- ----------- ------ ----- -------------

           HR_DAV      470:1   12.004 MiB    Yes     -     3.357 GiB
                R        471    2.436 MiB    Yes     -   219.214 MiB
            R_DAV      470:0   12.004 MiB    Yes     -     7.219 GiB
           T_DIIS       70:0    1.819 MiB    Yes     -    32.738 MiB
           Z_DIIS       70:1    1.819 MiB    Yes     -    54.563 MiB
          <AI|bj>         18  371.383 KiB    Yes     -    56.875 MiB
          <Ab|Cd>        233  100.632 MiB    Yes     -   522.718 GiB
          <Ab|Ci>         30    5.996 MiB    Yes     -    36.532 GiB
          <Ab|Ij>         16  371.383 KiB    Yes     -     3.462 GiB
          <Ai|Bj>         25  371.383 KiB    Yes     -    50.050 MiB
          <Aj|bI>         21  371.383 KiB     No     -         0   B
          <Ij|Ka>         10   23.180 KiB    Yes     -   175.064 MiB
          <Ij|Kl>         13    1.539 KiB    Yes     -    70.797 KiB
           DD(AI)      448:8    1.102 KiB    Yes     -    93.781 KiB
        DD(Ab,Ij)        450  371.383 KiB    Yes     -    37.480 MiB
            F(EA)       92:0   16.180 KiB    Yes     -    27.319 MiB
            F(EM)       93:0    1.102 KiB    Yes     -     1.545 MiB
            F(MI)       91:0       88   B    Yes     -   240.109 KiB
           HR(AI)      490:2    1.102 KiB    Yes     -     6.686 MiB
        HR(Ab,Ij)        463  371.383 KiB    Yes     -     4.641 GiB
            Q(AI)      190:2    1.102 KiB    Yes     -   396.562 KiB
         Q(Ab,Ij)         50  371.383 KiB    Yes     -   554.898 MiB
        QQ(Ab,Ij)          3  371.383 KiB    Yes     -    89.297 MiB
            R(AI)      490:0    1.102 KiB    Yes     -    18.859 MiB
         R(Ab,Ij)        446  371.383 KiB    Yes     -     8.963 GiB
            T(AI)       90:0    1.102 KiB    Yes     -     3.265 MiB
         T(Ab,Ij)         46  371.383 KiB    Yes     -     2.622 GiB
         W(Mn,Ij)         53    1.539 KiB    Yes     -     5.865 MiB
        W~(Ab,Ej)        130    5.996 MiB    Yes     -    25.819 GiB
        W~(EM,bj)         56  371.383 KiB    Yes     -     1.455 GiB
        W~(Em,Bj)         58  371.383 KiB    Yes     -     2.422 GiB
        W~(Ij,Mb)        110   23.180 KiB    Yes     -   121.438 MiB
       W~~(Ab,Ej)        169    5.996 MiB    Yes     -     3.783 GiB
       W~~(EM,bj)         76  371.383 KiB    Yes     -   133.466 MiB
       W~~(Em,Bj)         78  371.383 KiB    Yes     -   133.466 MiB
       W~~(Ij,Mb)        165   23.180 KiB    Yes     -    14.623 MiB
         X(Ab,Ef)        433  100.632 MiB    Yes     -   306.748 GiB
         X(Ab,Ej)        430    5.996 MiB    Yes     -    27.483 GiB
         X(Ab,Ij)        416  371.383 KiB     No     -         0   B
            X(EA)      492:0   16.180 KiB    Yes     -    22.160 MiB
            X(EM)      493:0    1.102 KiB    Yes     -  1004.180 KiB
         X(EM,bj)        418  371.383 KiB    Yes     -     1.032 GiB
         X(Ef,Am)        469    5.996 MiB    Yes     -    16.872 GiB
         X(Em,Bj)        425  371.383 KiB    Yes     -     1.815 GiB
         X(Ij,Mb)        410   23.180 KiB    Yes     -   128.222 MiB
            X(MI)      491:0       88   B    Yes     -   129.727 KiB
         X(Mn,Ie)        465   23.180 KiB    Yes     -   113.077 MiB
         X(Mn,Ij)        413    1.539 KiB    Yes     -     4.106 MiB
            Z(AI)       90:2    1.102 KiB    Yes     -   396.562 KiB
         Z(Ab,Ij)         63  371.383 KiB    Yes     -   130.564 MiB
      HR(abc,ijk)    HR3FILE   35.605 MiB    Yes     1   169.673 GiB
    HR(abcd,ijkl)    HR4FILE    4.389 GiB    Yes     1 20682.940 GiB
            HR3_1      HR3_1   35.605 MiB    Yes     1   115.413 GiB
           HR3_10     HR3_10   35.605 MiB    Yes     1    25.058 GiB
           HR3_11     HR3_11   35.605 MiB    Yes     1     4.640 GiB
           HR3_12     HR3_12   35.605 MiB    Yes     1     4.640 GiB
           HR3_13     HR3_13   35.605 MiB    Yes     1     4.640 GiB
           HR3_14     HR3_14   35.605 MiB    Yes     1     4.640 GiB
           HR3_15     HR3_15   35.605 MiB    Yes     1     4.640 GiB
           HR3_16     HR3_16   35.605 MiB    Yes     1     4.640 GiB
           HR3_17     HR3_17   35.605 MiB    Yes     1     4.640 GiB
           HR3_18     HR3_18   35.605 MiB    Yes     1     4.640 GiB
           HR3_19     HR3_19   35.605 MiB    Yes     1     4.640 GiB
            HR3_2      HR3_2   35.605 MiB    Yes     1    18.044 GiB
           HR3_20     HR3_20   35.605 MiB    Yes     1     4.640 GiB
           HR3_21     HR3_21   35.605 MiB    Yes     1     4.221 GiB
           HR3_22     HR3_22   35.605 MiB    Yes     1     4.221 GiB
           HR3_23     HR3_23   35.605 MiB    Yes     1     4.221 GiB
           HR3_24     HR3_24   35.605 MiB    Yes     1     4.221 GiB
           HR3_25     HR3_25   35.605 MiB    Yes     1     4.221 GiB
           HR3_26     HR3_26   35.605 MiB    Yes     1     4.221 GiB
           HR3_27     HR3_27   35.605 MiB    Yes     1     4.221 GiB
           HR3_28     HR3_28   35.605 MiB    Yes     1     4.221 GiB
           HR3_29     HR3_29   35.605 MiB    Yes     1     4.221 GiB
            HR3_3      HR3_3   35.605 MiB    Yes     1    18.147 GiB
           HR3_30     HR3_30   35.605 MiB    Yes     1     4.221 GiB
           HR3_31     HR3_31   35.605 MiB     No     1         0   B
           HR3_32     HR3_32   35.605 MiB     No     1         0   B
           HR3_33     HR3_33   35.605 MiB     No     1         0   B
            HR3_4      HR3_4   35.605 MiB    Yes     1    18.249 GiB
            HR3_5      HR3_5   35.605 MiB    Yes     1    18.352 GiB
            HR3_6      HR3_6   35.605 MiB    Yes     1    18.455 GiB
            HR3_7      HR3_7   35.605 MiB    Yes     1    18.558 GiB
            HR3_8      HR3_8   35.605 MiB    Yes     1    18.661 GiB
            HR3_9      HR3_9   35.605 MiB    Yes     1    18.764 GiB
            HR4_1      HR4_1    4.389 GiB    Yes     1 14694.539 GiB
           HR4_10     HR4_10    4.389 GiB    Yes     1  3190.891 GiB
           HR4_11     HR4_11    4.389 GiB     No     1   590.883 GiB
           HR4_12     HR4_12    4.389 GiB     No     1   590.883 GiB
           HR4_13     HR4_13    4.389 GiB     No     1   590.883 GiB
           HR4_14     HR4_14    4.389 GiB     No     1   590.883 GiB
           HR4_15     HR4_15    4.389 GiB     No     1   590.883 GiB
           HR4_16     HR4_16    4.389 GiB     No     1   590.883 GiB
           HR4_17     HR4_17    4.389 GiB     No     1   590.883 GiB
           HR4_18     HR4_18    4.389 GiB     No     1   590.883 GiB
           HR4_19     HR4_19    4.389 GiB     No     1   590.883 GiB
            HR4_2      HR4_2    4.389 GiB     No     1  2297.901 GiB
           HR4_20     HR4_20    4.389 GiB     No     1   590.883 GiB
           HR4_21     HR4_21    4.389 GiB     No     1   538.175 GiB
           HR4_22     HR4_22    4.389 GiB     No     1   538.175 GiB
           HR4_23     HR4_23    4.389 GiB     No     1   538.175 GiB
           HR4_24     HR4_24    4.389 GiB     No     1   538.175 GiB
           HR4_25     HR4_25    4.389 GiB     No     1   538.175 GiB
           HR4_26     HR4_26    4.389 GiB     No     1   538.175 GiB
           HR4_27     HR4_27    4.389 GiB     No     1   538.175 GiB
           HR4_28     HR4_28    4.389 GiB     No     1   538.175 GiB
           HR4_29     HR4_29    4.389 GiB     No     1   538.175 GiB
            HR4_3      HR4_3    4.389 GiB     No     1  2311.027 GiB
           HR4_30     HR4_30    4.389 GiB     No     1   538.175 GiB
           HR4_31     HR4_31    4.389 GiB     No     1         0   B
           HR4_32     HR4_32    4.389 GiB     No     1         0   B
           HR4_33     HR4_33    4.389 GiB     No     1         0   B
            HR4_4      HR4_4    4.389 GiB     No     1  2324.154 GiB
            HR4_5      HR4_5    4.389 GiB     No     1  2337.280 GiB
            HR4_6      HR4_6    4.389 GiB     No     1  2350.406 GiB
            HR4_7      HR4_7    4.389 GiB     No     1  2363.532 GiB
            HR4_8      HR4_8    4.389 GiB    Yes     1  2376.659 GiB
            HR4_9      HR4_9    4.389 GiB    Yes     1  2389.785 GiB
       Q(abc,ijk)     Q3FILE   35.605 MiB    Yes     1     2.086 GiB
       R(abc,ijk)     R3FILE   35.605 MiB    Yes     1   534.291 GiB
     R(abcd,ijkl)     R4FILE    4.389 GiB    Yes     1 66645.030 GiB
             R3_1       R3_1   35.605 MiB    Yes     1   211.334 GiB
            R3_10      R3_10   35.605 MiB    Yes     1    45.167 GiB
            R3_11      R3_11   35.605 MiB    Yes     1    15.470 GiB
            R3_12      R3_12   35.605 MiB    Yes     1    15.470 GiB
            R3_13      R3_13   35.605 MiB    Yes     1    15.470 GiB
            R3_14      R3_14   35.605 MiB    Yes     1    15.470 GiB
            R3_15      R3_15   35.605 MiB    Yes     1    15.470 GiB
            R3_16      R3_16   35.605 MiB    Yes     1    15.470 GiB
            R3_17      R3_17   35.605 MiB    Yes     1    15.470 GiB
            R3_18      R3_18   35.605 MiB    Yes     1    15.470 GiB
            R3_19      R3_19   35.605 MiB    Yes     1    15.470 GiB
           R3_1_1     R3_1_1   35.605 MiB    Yes     1     7.823 GiB
           R3_1_2     R3_1_2   35.605 MiB     No     1         0   B
           R3_1_3     R3_1_3   35.605 MiB     No     1         0   B
             R3_2       R3_2   35.605 MiB    Yes     1    38.153 GiB
            R3_20      R3_20   35.605 MiB    Yes     1     8.250 GiB
            R3_21      R3_21   35.605 MiB    Yes     1     4.221 GiB
            R3_22      R3_22   35.605 MiB    Yes     1     4.221 GiB
            R3_23      R3_23   35.605 MiB    Yes     1     4.221 GiB
            R3_24      R3_24   35.605 MiB    Yes     1     4.221 GiB
            R3_25      R3_25   35.605 MiB    Yes     1     4.221 GiB
            R3_26      R3_26   35.605 MiB    Yes     1     4.221 GiB
            R3_27      R3_27   35.605 MiB    Yes     1     4.221 GiB
            R3_28      R3_28   35.605 MiB    Yes     1     4.221 GiB
            R3_29      R3_29   35.605 MiB    Yes     1     4.221 GiB
           R3_2_1     R3_2_1   35.141 MiB    Yes     1     5.148 GiB
           R3_2_2     R3_2_2   35.141 MiB     No     1         0   B
             R3_3       R3_3   35.605 MiB    Yes     1    38.256 GiB
            R3_30      R3_30   35.605 MiB    Yes     1     4.221 GiB
            R3_31      R3_31   35.605 MiB     No     1         0   B
            R3_32      R3_32   35.605 MiB     No     1         0   B
            R3_33      R3_33   35.605 MiB     No     1         0   B
             R3_4       R3_4   35.605 MiB    Yes     1    38.359 GiB
           R3_4_1     R3_4_1   34.676 MiB    Yes     1     5.080 GiB
           R3_4_2     R3_4_2   34.676 MiB     No     1         0   B
             R3_5       R3_5   35.605 MiB    Yes     1    38.462 GiB
             R3_6       R3_6   35.605 MiB    Yes     1    38.565 GiB
             R3_7       R3_7   35.605 MiB    Yes     1    38.668 GiB
             R3_8       R3_8   35.605 MiB    Yes     1    38.771 GiB
             R3_9       R3_9   35.605 MiB    Yes     1    38.874 GiB
             R4_1       R4_1    4.389 GiB    Yes     1 26907.207 GiB
            R4_10      R4_10    4.389 GiB    Yes     1  5751.519 GiB
            R4_11      R4_11    4.389 GiB     No     1  1969.746 GiB
            R4_12      R4_12    4.389 GiB     No     1  1969.746 GiB
            R4_13      R4_13    4.389 GiB     No     1  1969.746 GiB
            R4_14      R4_14    4.389 GiB     No     1  1969.746 GiB
            R4_15      R4_15    4.389 GiB     No     1  1969.746 GiB
            R4_16      R4_16    4.389 GiB     No     1  1969.746 GiB
            R4_17      R4_17    4.389 GiB     No     1  1969.746 GiB
            R4_18      R4_18    4.389 GiB     No     1  1969.746 GiB
            R4_19      R4_19    4.389 GiB     No     1  1969.746 GiB
           R4_1_1     R4_1_1    4.389 GiB     No     1   987.516 GiB
           R4_1_2     R4_1_2    4.389 GiB     No     1         0   B
           R4_1_3     R4_1_3    4.389 GiB     No     1         0   B
             R4_2       R4_2    4.389 GiB    Yes     1  4858.530 GiB
            R4_20      R4_20    4.389 GiB     No     1  1050.504 GiB
            R4_21      R4_21    4.389 GiB     No     1   538.175 GiB
            R4_22      R4_22    4.389 GiB     No     1   538.175 GiB
            R4_23      R4_23    4.389 GiB     No     1   538.175 GiB
            R4_24      R4_24    4.389 GiB     No     1   538.175 GiB
            R4_25      R4_25    4.389 GiB     No     1   538.175 GiB
            R4_26      R4_26    4.389 GiB     No     1   538.175 GiB
            R4_27      R4_27    4.389 GiB     No     1   538.175 GiB
            R4_28      R4_28    4.389 GiB     No     1   538.175 GiB
            R4_29      R4_29    4.389 GiB     No     1   538.175 GiB
           R4_2_1     R4_2_1    4.375 GiB    Yes     1   656.311 GiB
           R4_2_2     R4_2_2    4.375 GiB     No     1         0   B
             R4_3       R4_3    4.389 GiB    Yes     1  4871.656 GiB
            R4_30      R4_30    4.389 GiB     No     1   538.175 GiB
            R4_31      R4_31    4.389 GiB     No     1         0   B
            R4_32      R4_32    4.389 GiB     No     1         0   B
            R4_33      R4_33    4.389 GiB     No     1         0   B
             R4_4       R4_4    4.389 GiB    Yes     1  4884.782 GiB
           R4_4_1     R4_4_1    4.362 GiB    Yes     1   654.278 GiB
           R4_4_2     R4_4_2    4.362 GiB     No     1         0   B
             R4_5       R4_5    4.389 GiB    Yes     1  4897.909 GiB
             R4_6       R4_6    4.389 GiB    Yes     1  4911.035 GiB
             R4_7       R4_7    4.389 GiB    Yes     1  4924.161 GiB
             R4_8       R4_8    4.389 GiB    Yes     1  4937.287 GiB
             R4_9       R4_9    4.389 GiB    Yes     1  4950.414 GiB
       T(abc,ijk)     T3FILE   35.605 MiB    Yes     1    21.975 GiB
     T(abcd,ijkl)     T4FILE    4.389 GiB     No     1   662.733 GiB
             T3_1       T3_1   35.605 MiB    Yes     1     1.043 GiB
             T3_2       T3_2   35.605 MiB    Yes     1   534.070 MiB
             T3_3       T3_3   35.605 MiB    Yes     1   534.070 MiB
             T3_4       T3_4   35.605 MiB    Yes     1   534.070 MiB
             T3_5       T3_5   35.605 MiB    Yes     1   534.070 MiB
       W(abc,ije)    WABCIJE    1.466 GiB    Yes     1   246.249 GiB
       W(abf,ijn)    WABFIJN   88.826 MiB    Yes     1    11.797 GiB
       W(abf,inj)    WABFINJ  147.672 MiB    Yes     1    19.613 GiB
       W(abm,ijk)    WABMIJK    5.295 MiB    Yes     1   889.537 MiB
       W(mnd,jkl)    WMNDJKL  328.266 KiB    Yes     1    43.598 MiB
       X(abc,ije)    XABCIJE    1.466 GiB    Yes     1   612.995 GiB
       X(abm,ijk)    XABMIJK    5.295 MiB    Yes     1     2.127 GiB
       X(mnd,jkl)    XMNDJKL  328.266 KiB    Yes     1    64.335 MiB
       Z(abc,ijk)     Z3FILE   35.605 MiB    Yes     1     5.737 GiB
     Z(abcd,ijkl)     Z4FILE    4.389 GiB     No     1   197.503 GiB
             Z3_1       Z3_1   35.605 MiB    Yes     1     1.043 GiB
             Z3_2       Z3_2   35.605 MiB    Yes     1     1.043 GiB
             Z3_3       Z3_3   35.605 MiB    Yes     1     1.043 GiB
             Z3_4       Z3_4   35.605 MiB    Yes     1     1.043 GiB
             Z3_5       Z3_5   35.605 MiB    Yes     1     1.043 GiB

Simulation and memory analysis took 19.357 seconds

MP2 correlation energy:  -0.361612200091040

Non-iterative calculation of MP2 took 0.572 cpu seconds and 0.030 walltime seconds at 0.076 Gflops/sec

Total MP2 energy: -113.142349899138466

Beginning iterative solution of CCSDTQ equations:

It.  Correlation Energy T1 Residual T2 Residual T3 Residual T4 Residual CPU Time (s) Walltime (s)
-------------------------------------------------------------------------------------------------
  1  -0.378935029884005 1.81384e-03 2.29432e-03 1.03316e-03 4.54156e-04     3322.551      307.539
  2  -0.382272560460785 3.15929e-04 7.21415e-04 1.65892e-04 1.55027e-04    20873.853     1475.217
  3  -0.382511687207633 2.60370e-05 5.93504e-05 5.65669e-05 5.70841e-05    20795.833     1471.004
  4  -0.382579356412707 1.17902e-05 2.49023e-05 1.44003e-05 2.44664e-05    20770.399     1468.354
  5  -0.382588084354124 4.32391e-06 8.22775e-06 4.26351e-06 1.18827e-05    20764.405     1463.724

   A    I                     A    I                     A    I                  
-------------------------- -------------------------- -------------------------- 
  13    6  0.0261817298902   10    6  0.0105154629778   38    6  0.0088000635045 
  12    5  0.0261817298902    9    5  0.0105154629778   15    5  0.0062272066595 
  24    5  0.0129081749814   29    7 -0.0095016661239   16    6  0.0062272066595 
  25    6  0.0129081749814    8    7  0.0089843126548   32    7 -0.0055971839489 
  17    7 -0.0107297473714   37    5  0.0088000635045   29    4  0.0055308815876 

   A    B    I    J                     A    B    I    J                  
------------------------------------ ------------------------------------ 
  13   13    7    7 -0.0503338130904   12    9    5    5 -0.0257378782516 
  12   12    7    7 -0.0503338130904    9   12    5    5 -0.0257378782516 
  13   13    6    6 -0.0498045798584   15   12    5    5 -0.0245386055007 
  12   12    5    5 -0.0498045798584   12   15    5    5 -0.0245386055007 
  13   12    6    5 -0.0357577401533   16   13    6    6 -0.0245386055007 
  12   13    5    6 -0.0357577401533   13   16    6    6 -0.0245386055007 
  13   10    6    6 -0.0257378782516   29   29    7    7 -0.0243059877824 
  10   13    6    6 -0.0257378782516 

It.  Correlation Energy T1 Residual T2 Residual T3 Residual T4 Residual CPU Time (s) Walltime (s)
-------------------------------------------------------------------------------------------------
  6  -0.382591893966467 1.19575e-06 2.68324e-06 1.65756e-06 5.82211e-06    20770.858     1465.226
  7  -0.382593150704772 2.52502e-07 9.78700e-07 5.65313e-07 2.89895e-06    20735.573     1464.542
  8  -0.382593704644572 1.24657e-07 4.08677e-07 2.60015e-07 1.43995e-06    20797.182     1466.498
  9  -0.382593932905166 5.04472e-08 1.59946e-07 9.70743e-08 7.26073e-07    20755.926     1465.706
 10  -0.382594025684110 2.67485e-08 7.85564e-08 4.80223e-08 3.64045e-07    20918.259     1475.494

   A    I                     A    I                     A    I                  
-------------------------- -------------------------- -------------------------- 
  13    6  0.0261800378278   10    6  0.0105145336545   38    6  0.0088000240900 
  12    5  0.0261800378278    9    5  0.0105145336545   15    5  0.0062267323113 
  24    5  0.0129077550568   29    7 -0.0095016212991   16    6  0.0062267323113 
  25    6  0.0129077550568    8    7  0.0089827445525   32    7 -0.0055975485674 
  17    7 -0.0107287198233   37    5  0.0088000240900   29    4  0.0055308441397 

   A    B    I    J                     A    B    I    J                  
------------------------------------ ------------------------------------ 
  13   13    7    7 -0.0503405456450   12    9    5    5 -0.0257388561874 
  12   12    7    7 -0.0503405456450    9   12    5    5 -0.0257388561874 
  13   13    6    6 -0.0498063662374   15   12    5    5 -0.0245393385884 
  12   12    5    5 -0.0498063662374   12   15    5    5 -0.0245393385884 
  13   12    6    5 -0.0357576689295   16   13    6    6 -0.0245393385884 
  12   13    5    6 -0.0357576689295   13   16    6    6 -0.0245393385884 
  13   10    6    6 -0.0257388561874   29   29    7    7 -0.0243058563302 
  10   13    6    6 -0.0257388561874 

It.  Correlation Energy T1 Residual T2 Residual T3 Residual T4 Residual CPU Time (s) Walltime (s)
-------------------------------------------------------------------------------------------------

CCSDTQ iterations converged in 10 cycles and 13523.307 seconds (1352.331 s/it.) at 9.699 Gflops/sec

Total CCSDTQ energy: -113.163331724731535

             _
Formation of H took 155.455 seconds at 3.156 Gflops/sec

Searching for 3 roots in irrep 1

EOMEE-CCSD guess vector:

   A    I                  
-------------------------- 
   8    7  1.0000000000000 

Beginning iterative solution of EOMEE-CCSDTQ equations:

It.  Correlation Energy R1 Residual R2 Residual R3 Residual R4 Residual CPU Time (s) Walltime (s)
-------------------------------------------------------------------------------------------------
  1   0.531399886655713 2.21553e-02 6.03076e-02 3.67030e-03 4.45734e-04    18474.371     1157.002
  2   0.463812194326587 6.42480e-02 4.02102e-02 2.12285e-03 1.78634e-04    19266.121     1231.367
  3   0.416649110455456 1.40346e-02 1.23822e-02 4.48260e-03 3.00760e-04    19870.594     1290.927
  4   0.409640959627676 1.22075e-02 9.00127e-03 2.37309e-03 4.32369e-04    20313.934     1342.624
  5   0.406410979346177 3.62801e-03 7.72379e-03 8.76044e-04 2.45859e-04    21910.399     1491.763
  6   0.404064968343484 3.74384e-03 3.42532e-03 1.02079e-03 1.47838e-04    26451.718     1890.179
  7   0.403530212231168 2.89896e-03 1.21967e-03 4.25013e-04 1.04862e-04    32269.232     2371.684
  8   0.403188754009665 3.50705e-03 7.80756e-04 3.82041e-04 8.60329e-05    36485.006     2687.247
  9   0.403106854926148 2.50534e-03 1.33567e-03 3.28700e-04 7.17087e-05    38662.847     2925.684
Locking on root: 0.403142036000780
 10   0.403142036000780 2.69382e-03 7.66086e-04 1.98165e-04 5.84851e-05    39627.059     3291.228
 11   0.403058909026984 1.98994e-03 5.27181e-04 1.23492e-04 3.33705e-05    40490.473     3763.306
 12   0.402903229191754 1.56283e-03 2.65226e-04 1.35247e-04 3.19361e-05    38610.539     3828.151
 13   0.402979133263994 9.41017e-04 3.33269e-04 1.62076e-04 4.02370e-05    41588.939     4371.244
 14   0.402994344669690 4.64175e-04 2.38281e-04 1.33812e-04 3.33253e-05    42099.964     4709.664
 15   0.402902329981307 1.76476e-04 1.34421e-04 7.82111e-05 2.04046e-05    43253.810     5065.939
 16   0.402899828127027 7.45288e-05 7.44644e-05 4.21287e-05 1.14265e-05    44417.398     5451.066
 17   0.402905934791718 6.53079e-05 4.95026e-05 1.97106e-05 5.65419e-06    45247.195     5882.022
 18   0.402897387202960 3.72345e-05 3.18131e-05 1.42375e-05 2.87684e-06    47061.459     6321.872
 19   0.402895576946716 1.40849e-05 2.13779e-05 1.06247e-05 2.41113e-06    48524.624     6800.184
Compacting subspace
 20   0.402897742293205 7.10928e-06 1.27715e-05 6.81539e-06 1.66641e-06   156092.303    41277.140
 21   0.402897659797982 4.56567e-06 9.40908e-06 5.01353e-06 1.22872e-06    41520.488     3850.432

EOMEE-CCSDTQ iterations converged in 21 cycles and 111000.832 seconds (5285.754 s/it.) at 5.063 Gflops/sec

EOMEE-CCSDTQ excitation energy:   0.402897659797986 ( 10.963402691725772 eV)
Total EOMEE-CCSDTQ energy:      -112.760434064933548

Converged root:

   A    I                     A    I                     A    I                  
-------------------------- -------------------------- -------------------------- 
   8    7  0.6040216761609   12    5  0.0691757635109   24    5  0.0241173677027 
  11    7  0.1658435518769   10    6  0.0356421883839   20    7 -0.0212105318555 
  17    7 -0.1594289890650    9    5  0.0356421883838   29    7 -0.0131565100406 
  14    7 -0.0968610963210   26    7  0.0253806942176   37    5  0.0115570470673 
  13    6  0.0691757635110   25    6  0.0241173677028   38    6  0.0115570470673 

   A    B    I    J                     A    B    I    J                  
------------------------------------ ------------------------------------ 
   8    8    7    7 -0.0668787966766    8   24    7    5  0.0428244681280 
  13    8    6    7  0.0658949479330   25    8    6    7  0.0428244681280 
   8   13    7    6  0.0658949479330    8   25    7    6  0.0428244681280 
  12    8    5    7  0.0658949479330   11    8    7    7 -0.0410290759492 
   8   12    7    5  0.0658949479330    8   11    7    7 -0.0410290759492 
  29    8    7    7  0.0465788136753    8   13    6    7  0.0400158183619 
   8   29    7    7  0.0465788136753   13    8    7    6  0.0400158183619 
  24    8    5    7  0.0428244681280 

EOMEE-CCSD guess vector:

   A    I                  
-------------------------- 
  11    7  1.0000000000000 

Beginning iterative solution of EOMEE-CCSDTQ equations:

It.  Correlation Energy R1 Residual R2 Residual R3 Residual R4 Residual CPU Time (s) Walltime (s)
-------------------------------------------------------------------------------------------------
  1   0.531431476651837 8.12537e-02 7.52808e-02 2.45883e-03 3.26122e-04    31004.822     2244.341
  2   0.441309113306251 4.07827e-02 9.31749e-03 6.61731e-03 2.88504e-04    32175.266     2332.204
  3   0.429237647220127 1.38041e-02 3.72750e-03 1.35906e-03 3.63837e-04    33613.771     2470.453
  4   0.426071468906826 5.24756e-03 2.23478e-03 1.34402e-03 2.77312e-04    35294.368     2620.579
  5   0.424686455981542 2.63294e-03 1.88808e-03 7.98198e-04 2.07792e-04    37301.012     2801.000
  6   0.423746461568799 2.34324e-03 1.43824e-03 6.97418e-04 1.54302e-04    38877.923     3028.509
  7   0.423521529521683 1.21118e-03 1.28583e-03 6.02876e-04 1.37136e-04    40129.616     3049.073
  8   0.423457460508008 6.38516e-04 7.95056e-04 3.94316e-04 9.50116e-05    41874.999     3237.360
Locking on root: 0.423435069223973
  9   0.423435069223973 4.84463e-04 4.06546e-04 2.20369e-04 5.33260e-05    43436.568     3289.705
 10   0.423489353794982 3.06668e-04 2.40753e-04 1.18882e-04 3.04868e-05    45821.608     4190.726
 11   0.423485503806277 2.07963e-04 1.32759e-04 7.59678e-05 2.03617e-05    45970.858     4533.554
 12   0.423459743689660 1.07915e-04 8.08806e-05 5.14384e-05 1.50300e-05    44069.477     4599.022
 13   0.423462647680274 8.36915e-05 3.52703e-05 3.05048e-05 1.02697e-05    44871.036     4955.224
 14   0.423466733871661 3.47683e-05 1.58956e-05 1.60517e-05 5.98715e-06    46447.176     5368.473
 15   0.423464097474561 2.13184e-05 9.51426e-06 7.36166e-06 2.84568e-06    47852.577     5815.835
 16   0.423465249199640 1.02443e-05 4.83057e-06 3.62044e-06 1.45863e-06    48645.160     6228.310
 17   0.423466947603919 1.03006e-05 2.72203e-06 2.23355e-06 9.12369e-07    48238.599     6599.509
 18   0.423466202581327 4.78934e-06 2.46143e-06 1.69833e-06 7.04464e-07    49896.738     6946.529

EOMEE-CCSDTQ iterations converged in 18 cycles and 74310.592 seconds (4128.366 s/it.) at 6.431 Gflops/sec

EOMEE-CCSDTQ excitation energy:   0.423466202581324 ( 11.523101195382466 eV)
Total EOMEE-CCSDTQ energy:      -112.739865522150211

Converged root:

   A    I                     A    I                     A    I                  
-------------------------- -------------------------- -------------------------- 
  11    7  0.6306464670258   20    7 -0.0506550939362   25    6  0.0197478074217 
   8    7 -0.1574547540526   12    5  0.0404634366648   11    4 -0.0138007616904 
  17    7  0.1134529479390   13    6  0.0404634366646   26    7  0.0134391957026 
  23    7  0.0657946647510    8    4 -0.0221998762581   20    4  0.0132461066846 
  14    7 -0.0633026209141   24    5  0.0197478074217   16    6 -0.0121151403756 

   A    B    I    J                     A    B    I    J                  
------------------------------------ ------------------------------------ 
  11   11    7    7 -0.0810887252326   11   24    7    5  0.0390225764503 
  13   11    6    7  0.0508330956416   25   11    6    7  0.0390225764503 
  11   13    7    6  0.0508330956416   11   25    7    6  0.0390225764503 
  12   11    5    7  0.0508330956416   23   11    7    7 -0.0386824654678 
  11   12    7    5  0.0508330956416   11   23    7    7 -0.0386824654678 
  29   11    7    7  0.0452971528528   11   13    6    7  0.0369677499754 
  11   29    7    7  0.0452971528528   13   11    7    6  0.0369677499754 
  24   11    5    7  0.0390225764503 

[...]
  14    7  1.0000000000000 

Beginning iterative solution of EOMEE-CCSDTQ equations:

It.  Correlation Energy R1 Residual R2 Residual R3 Residual R4 Residual CPU Time (s) Walltime (s)
-------------------------------------------------------------------------------------------------
  1   0.633910956563221 1.49312e-01 4.03077e-02 3.71201e-03 4.45578e-04    30799.546     2255.436
  2   0.527970418988903 5.50387e-02 1.21844e-02 3.58258e-03 3.68341e-04    31945.863     2344.067
  3   0.511682935693785 2.08965e-02 4.58467e-03 1.78737e-03 1.92409e-04    33031.564     2449.759
  4   0.507937065890035 7.88279e-03 2.12490e-03 1.18593e-03 1.77529e-04    34441.960     2584.991
  5   0.504834110880589 7.15559e-03 1.77720e-03 7.84411e-04 1.94779e-04    36043.966     2808.435
  6   0.502000559121573 7.53844e-03 2.06158e-03 9.98021e-04 2.76536e-04    37805.031     2891.322
  7   0.498897499406653 6.41559e-03 2.64706e-03 1.25432e-03 3.27141e-04    39599.712     3045.004
  8   0.496414506779390 3.61263e-03 2.80835e-03 1.24356e-03 2.75447e-04    41201.706     3111.712
  9   0.495380899271656 3.21417e-03 2.80258e-03 1.11105e-03 2.48235e-04    44400.429     4169.758
 10   0.495073888232865 1.97268e-03 2.19002e-03 9.39865e-04 1.98723e-04    45844.757     4467.929
 11   0.494885353507430 1.77041e-03 1.39898e-03 6.09779e-04 1.33099e-04    47151.105     4796.798
 12   0.494697134665195 1.12169e-03 8.31618e-04 3.80921e-04 8.68689e-05    47016.605     5127.003
Locking on root: 0.494745054723858
 13   0.494745054723858 6.43695e-04 4.52242e-04 2.34701e-04 5.75527e-05    46025.226     5343.973
 14   0.494762780779286 4.34423e-04 2.40833e-04 1.48878e-04 4.04479e-05    45492.215     5754.072
 15   0.494702361252059 2.42388e-04 1.24834e-04 9.05069e-05 2.72249e-05    45277.766     5997.252
 16   0.494715049909383 1.43263e-04 5.53498e-05 5.21939e-05 1.69320e-05    47095.160     6394.609
 17   0.494712549769560 6.90676e-05 2.79980e-05 3.05366e-05 1.04550e-05    48406.005     6831.174
 18   0.494705185781853 4.03434e-05 2.10519e-05 1.66440e-05 5.99250e-06    49406.192     7324.226
 19   0.494700717132888 3.56848e-05 1.69685e-05 9.75468e-06 3.68801e-06    51739.449     7779.499
Compacting subspace
 20   0.494702959183459 2.79033e-03 5.83385e-05 6.95334e-06 2.78295e-06   194778.761    54122.770
 21   0.494703272268679 2.67214e-05 7.63211e-06 6.75742e-06 2.72524e-06    40951.544     4379.783
 22   0.494704243136421 1.67017e-05 6.00747e-06 8.69863e-06 3.65180e-06    42385.077     4736.959
 23   0.494704153868114 9.75913e-06 6.54502e-06 7.34605e-06 3.19390e-06    43198.810     5190.003

EOMEE-CCSDTQ iterations converged in 23 cycles and 153906.858 seconds (6691.603 s/it.) at 4.025 Gflops/sec

EOMEE-CCSDTQ excitation energy:   0.494704153868113 ( 13.461584400477825 eV)
Total EOMEE-CCSDTQ energy:      -112.668627570863421

Converged root:

   A    I                     A    I                     A    I                  
-------------------------- -------------------------- -------------------------- 
  14    7 -0.4207706273315    8    7 -0.1464945859363   26    7  0.0572988342492 
   9    5  0.2245562328086   17    7 -0.1197014332094   17    4  0.0491097949757 
  10    6  0.2245562327970   20    7  0.0993950033022   29    7 -0.0429700855055 
  12    5  0.2074874570958    8    4 -0.0876033727661   15    5  0.0356487803217 
  13    6  0.2074874570807   11    7 -0.0869783433602   16    6  0.0356487803163 

   A    B    I    J                     A    B    I    J                  
------------------------------------ ------------------------------------ 
  12   12    5    5 -0.0563298274889   13   10    6    6 -0.0418359498048 
  13   13    6    6 -0.0563298274860   10   13    6    6 -0.0418359498048 
  12   14    5    7 -0.0468185551620    9    9    5    5 -0.0360896825152 
  14   12    7    5 -0.0468185551620   10   10    6    6 -0.0360896825140 
  14   13    7    6 -0.0468185551618   29   14    7    7 -0.0335918446122 
  13   14    6    7 -0.0468185551618   14   29    7    7 -0.0335918446122 
  12    9    5    5 -0.0418359498066   13   12    6    5 -0.0316214285995 
   9   12    5    5 -0.0418359498066 

Searching for 2 roots in irrep 2

EOMEE-CCSD guess vector:

   A    I                  
-------------------------- 
   9    7  1.0000000000000 

Beginning iterative solution of EOMEE-CCSDTQ equations:

It.  Correlation Energy R1 Residual R2 Residual R3 Residual R4 Residual CPU Time (s) Walltime (s)
-------------------------------------------------------------------------------------------------
  1   0.500988003966165 3.02961e-02 5.91798e-02 3.19724e-03 4.47598e-04    18621.213     1223.604
  2   0.444857978611946 1.23454e-01 2.46666e-02 2.18202e-03 1.33727e-04    20173.175     1312.669
  3   0.372088124251274 4.13294e-02 1.21562e-02 2.69310e-03 3.13332e-04    21585.622     1438.410
  4   0.340756953697441 4.35591e-02 9.69957e-03 3.58531e-03 2.88730e-04    22743.553     1543.949
  5   0.322526175671389 1.73150e-02 4.47895e-03 2.34728e-03 5.16382e-04    24612.571     1710.147
  6   0.314031964986917 4.97362e-03 3.16777e-03 1.71047e-03 2.25824e-04    28276.927     2045.319
  7   0.311681864055968 2.25841e-03 1.08320e-03 6.73291e-04 1.94900e-04    32899.567     2430.238
Locking on root: 0.311707434429031
  8   0.311707434429031 1.47591e-03 7.14377e-04 3.67038e-04 9.65207e-05    36470.507     2691.033
  9   0.311632117242659 4.37016e-04 5.70723e-04 3.00580e-04 7.18305e-05    39233.620     2911.449
 10   0.311600016379457 3.33530e-04 3.23634e-04 1.86594e-04 4.52317e-05    41494.160     3120.977
 11   0.311615179986731 2.10398e-04 1.28753e-04 7.82720e-05 2.00916e-05    39617.887     3628.054
 12   0.311609099675723 1.32003e-04 7.94823e-05 3.62565e-05 9.91390e-06    38718.613     3889.152
 13   0.311612396523106 6.98722e-05 5.40256e-05 2.18398e-05 6.16405e-06    41196.841     4299.160
 14   0.311623599161220 4.23342e-05 3.10002e-05 1.50179e-05 4.64192e-06    42717.304     4725.818
 15   0.311624095820761 1.54162e-05 1.49385e-05 9.63375e-06 3.30095e-06    43368.142     5024.940
 16   0.311623224697596 6.41014e-06 6.80504e-06 5.44989e-06 2.01691e-06    44269.560     5423.747

EOMEE-CCSDTQ iterations converged in 16 cycles and 47418.753 seconds (2963.672 s/it.) at 8.636 Gflops/sec

EOMEE-CCSDTQ excitation energy:   0.311623224697598 (  8.479699043590696 eV)
Total EOMEE-CCSDTQ energy:      -112.851708500033936

Converged root:

   A    I                     A    I                     A    I                  
-------------------------- -------------------------- -------------------------- 
  12    7  0.4958087055223   21    7  0.0730830681936   21    4  0.0233621947301 
   9    7  0.3897164217459    9    4  0.0380668243037   45    7  0.0223548842498 
  15    7  0.1804784108066   30    7  0.0323194207217   37    7 -0.0191782559697 
  12    4  0.0868769371072   24    4  0.0313570383873   18    6 -0.0164927900286 
  24    7  0.0766322590317   15    4  0.0265488471169   19    5 -0.0164927900286 

   A    B    I    J                     A    B    I    J                  
------------------------------------ ------------------------------------ 
  12   12    5    4 -0.0423545920272   13   12    6    4 -0.0289426491290 
  12   12    4    5 -0.0423545920272   12   13    4    6 -0.0289426491290 
  12    9    5    7  0.0365251808425   12   29    7    7  0.0286224282693 
   9   12    7    5  0.0365251808425   29   12    7    7  0.0286224282693 
  12   12    5    7  0.0354370046842   13    9    6    7  0.0279307771672 
  12   12    7    5  0.0354370046842    9   13    7    6  0.0279307771672 
   9   12    5    7  0.0297893234754   12    9    5    4 -0.0277968189854 
  12    9    7    5  0.0297893234754 

EOMEE-CCSD guess vector:

   A    I                  
-------------------------- 
  12    7  1.0000000000000 

Beginning iterative solution of EOMEE-CCSDTQ equations:

It.  Correlation Energy R1 Residual R2 Residual R3 Residual R4 Residual CPU Time (s) Walltime (s)
-------------------------------------------------------------------------------------------------
  1   0.676357872884712 7.18388e+00 4.29791e-02 4.42503e-03 8.23354e-04    28919.976     2069.476
  2   0.531266478336130 5.26114e-02 3.22097e-02 3.16913e-03 3.75362e-04    31209.795     2223.061
  3   0.444269678717901 2.85830e-02 6.49559e-03 3.21635e-03 2.84131e-04    32957.812     2421.290
  4   0.436102793638136 1.47819e-02 3.43588e-03 1.54121e-03 2.79226e-04    34208.202     2541.064
  5   0.433252072064090 3.39032e-03 2.20571e-03 1.07997e-03 2.35335e-04    35191.805     2653.271
  6   0.431852436617107 3.85228e-03 1.16734e-03 7.36894e-04 1.64487e-04    36383.957     2904.405
  7   0.431203728939022 1.92653e-03 1.05681e-03 3.23060e-04 1.41840e-04    37125.048     2948.551
  8   0.430908805039427 2.10126e-03 8.42963e-04 4.06745e-04 8.97218e-05    38748.988     3128.023
  9   0.430719778187233 1.21367e-03 8.96582e-04 4.39449e-04 1.03771e-04    40487.205     3297.775
Locking on root: 0.430726510934405
 10   0.430726510934405 8.82717e-04 6.19580e-04 3.26122e-04 7.82920e-05    43114.850     3980.858
 11   0.430797557798682 6.12694e-04 3.61169e-04 1.94251e-04 4.94845e-05    44454.832     4377.226
 12   0.430721513434783 4.12364e-04 2.14787e-04 1.17748e-04 3.08125e-05    45271.354     4727.153
 13   0.430689358724166 3.30104e-04 1.16410e-04 7.87127e-05 2.16857e-05    44179.064     4891.789
 14   0.430719202717536 1.78357e-04 8.10501e-05 5.19004e-05 1.58293e-05    45162.633     5268.966
 15   0.430714762117685 9.48778e-05 4.58431e-05 3.10290e-05 1.04651e-05    46415.889     5667.827
 16   0.430707656783135 5.71615e-05 2.73162e-05 1.76231e-05 5.68347e-06    47441.683     5967.400
 17   0.430713811121405 3.57129e-05 1.54913e-05 1.03127e-05 2.96869e-06    48586.617     6360.238
 18   0.430714335087788 1.55035e-05 8.58818e-06 5.31594e-06 1.68021e-06    49526.226     6761.537
 19   0.430710615379632 1.18643e-05 3.71782e-06 3.21994e-06 1.05943e-06    50318.102     7150.805
Compacting subspace
 20   0.430709948186483 1.75855e-03 3.58259e-05 4.48502e-06 8.39296e-07   178987.499    46436.249
 21   0.430709952341660 7.55442e-06 1.55443e-06 1.85580e-06 7.93977e-07    45105.758     4510.659

EOMEE-CCSDTQ iterations converged in 21 cycles and 130287.921 seconds (6204.187 s/it.) at 4.165 Gflops/sec

EOMEE-CCSDTQ excitation energy:   0.430709952341658 ( 11.720213647364590 eV)
Total EOMEE-CCSDTQ energy:      -112.732621772389876

Converged root:

   A    I                     A    I                     A    I                  
-------------------------- -------------------------- -------------------------- 
   9    7 -0.5113269848751    9    4  0.0432335640808   15    4  0.0141108750877 
  12    7  0.3987622783319   21    7  0.0431820386330   39    7  0.0119516439937 
  24    7  0.1244195564029    8    5 -0.0250582375722    9    3  0.0105117451423 
  12    4  0.0741008253747   24    4  0.0152425057783   17    5  0.0103101893405 
  15    7 -0.0530065678831   30    7  0.0145520390926   21    4  0.0080495831830 

   A    B    I    J                     A    B    I    J                  
------------------------------------ ------------------------------------ 
  13    9    6    7 -0.0581777269201   24    9    5    7 -0.0402299848790 
   9   13    7    6 -0.0581777269201    9   24    7    5 -0.0402299848790 
  12    9    5    7 -0.0540809067785   25    9    6    7 -0.0401974605170 
   9   12    7    5 -0.0540809067785    9   25    7    6 -0.0401974605170 
   9   29    7    7 -0.0425634791913    9   13    6    7 -0.0382613025820 
  29    9    7    7 -0.0425634791913   13    9    7    6 -0.0382613025820 
   9   11    7    7  0.0424382598356    9    8    7    7  0.0370757853982 
  11    9    7    7  0.0424382598356 

Searching for 2 roots in irrep 4

EOMEE-CCSD guess vector:

   A    I                  
-------------------------- 
   9    6  1.0000000000000 

Beginning iterative solution of EOMEE-CCSDTQ equations:

It.  Correlation Energy R1 Residual R2 Residual R3 Residual R4 Residual CPU Time (s) Walltime (s)
-------------------------------------------------------------------------------------------------
  1   0.626634159700149 4.23599e-02 4.51211e-02 2.91176e-03 2.96463e-04    19130.564     1241.778
  2   0.543360296832751 1.39350e-01 2.49807e-02 3.31703e-03 1.74743e-04    20532.140     1340.373
  3   0.458758405519036 5.68010e-02 1.19341e-02 3.44164e-03 3.21865e-04    21608.496     1440.722
  4   0.409261852817286 5.14733e-02 6.08062e-03 6.41379e-03 9.62404e-04    22899.301     1552.810
  5   0.379283828950244 1.08145e-02 6.07975e-03 2.48085e-03 1.47937e-03    24664.753     1716.190
  6   0.369810351464299 7.87101e-03 2.03217e-03 1.77680e-03 4.94373e-04    28393.278     2058.947
  7   0.367488016208582 2.56628e-03 1.02283e-03 8.22072e-04 3.08969e-04    32706.738     2425.687
  8   0.367153250115670 1.81568e-03 6.29363e-04 4.01825e-04 1.58690e-04    36094.033     2668.585
  9   0.367192739356349 1.80995e-03 3.33196e-04 2.22269e-04 7.82921e-05    39067.414     2900.224
Locking on root: 0.367206626110518
 10   0.367206626110518 1.81862e-03 2.41006e-04 2.77920e-04 6.63509e-05    40977.425     3086.326
 11   0.367046991166604 1.81876e-03 3.47249e-04 5.61869e-04 1.25162e-04    39142.531     3560.526
 12   0.366753899500955 1.78728e-03 8.92768e-04 1.15947e-03 2.68093e-04    38647.026     3911.239
 13   0.366511531993252 1.60154e-03 1.68229e-03 2.00865e-03 4.82444e-04    40409.302     4202.474
 14   0.366027726915699 9.97844e-04 2.17424e-03 2.49485e-03 6.19637e-04    41633.686     4593.530
 15   0.365406249160387 7.32941e-04 1.63255e-03 1.95244e-03 4.89775e-04    43244.241     5032.225
 16   0.365122233042239 2.81734e-04 9.78828e-04 1.13135e-03 2.81723e-04    44634.741     5409.228
 17   0.365034923189059 9.17732e-05 4.93828e-04 6.46032e-04 1.55133e-04    45904.376     5914.978
 18   0.365020532564861 1.16120e-04 1.87913e-04 3.52516e-04 7.66519e-05    46401.614     6311.886
 19   0.365022297990316 9.68584e-05 8.37627e-05 1.67912e-04 3.13088e-05    47731.509     6682.460
Compacting subspace
 20   0.365021926256838 3.34647e-05 7.86420e-05 7.89693e-05 1.61625e-05   161882.407    41634.152
 21   0.365022240317178 3.20648e-05 4.45751e-05 6.50280e-05 1.30381e-05    41119.145     3787.237
 22   0.365015068446445 1.15870e-05 1.93129e-05 3.15545e-05 6.02862e-06    42421.571     4263.237
 23   0.365012253156643 6.42889e-06 6.04394e-06 1.49062e-05 3.12622e-06    43794.273     4549.393
 24   0.365011374975932 2.95395e-06 2.33472e-06 8.19617e-06 1.92997e-06    44141.216     4894.155

EOMEE-CCSDTQ iterations converged in 24 cycles and 125178.515 seconds (5215.771 s/it.) at 4.820 Gflops/sec

EOMEE-CCSDTQ excitation energy:   0.365011374975936 (  9.932464469831348 eV)
Total EOMEE-CCSDTQ energy:      -112.798320349755599

Converged root:

   A    I                     A    I                     A    I                  
-------------------------- -------------------------- -------------------------- 
  13    5  0.3758009568178   15    6 -0.1345221406681   31    5  0.0307897644146 
  12    6 -0.3756855582898   25    5  0.0771303762485   30    6 -0.0307808276499 
  10    5  0.2382297080472   24    6 -0.0771127952185   46    5  0.0167795450049 
   9    6 -0.2381511849881   22    5  0.0688930929911   45    6 -0.0167749289373 
  16    5  0.1345723660131   21    6 -0.0688710883275   38    5 -0.0141600390155 

   A    B    I    J                     A    B    I    J                  
------------------------------------ ------------------------------------ 
  13   12    5    5 -0.0435816952074   13    9    5    5 -0.0258154629757 
  12   13    5    5 -0.0435816952074    9   13    5    5 -0.0258154629757 
  13   13    6    5 -0.0435800880059   10   12    6    6  0.0258100695284 
  13   13    5    6 -0.0435800880059   12   10    6    6  0.0258100695284 
  12   12    6    5  0.0435707325898   10   13    6    5 -0.0249528511932 
  12   12    5    6  0.0435707325898   13   10    5    6 -0.0249528511932 
  13   12    6    6  0.0435691253883   12    9    6    5  0.0249470992742 
  12   13    6    6  0.0435691253883 

EOMEE-CCSD guess vector:

   A    I                  
-------------------------- 
  10    5  1.0000000000000 

Beginning iterative solution of EOMEE-CCSDTQ equations:

It.  Correlation Energy R1 Residual R2 Residual R3 Residual R4 Residual CPU Time (s) Walltime (s)
-------------------------------------------------------------------------------------------------
  1   0.659387412991378 1.55019e-01 4.21260e-02 3.09248e-03 3.14328e-04    29314.122     2110.253
  2   0.501905843636381 7.35274e-02 8.74948e-03 4.91915e-03 4.42393e-04    30432.957     2196.002
  3   0.451046922876091 5.64721e-02 8.83341e-03 5.96318e-03 1.45652e-03    32044.339     2354.142
  4   0.401445445503968 2.09421e-02 8.14033e-03 3.24172e-03 1.86883e-03    33373.554     2482.964
  5   0.377340325805990 1.11384e-02 4.18893e-03 3.08973e-03 7.78825e-04    34925.145     2648.320
  6   0.371326986042972 4.94703e-03 2.47912e-03 1.08984e-03 4.74081e-04    36256.996     2850.693
  7   0.370111605144099 1.76799e-03 1.47626e-03 6.28948e-04 2.25790e-04    37630.582     2979.468
  8   0.369990543568447 7.98868e-04 8.69854e-04 3.47900e-04 1.17044e-04    39880.943     3166.492
Locking on root: 0.370024798025853
  9   0.370024798025853 5.84311e-04 5.36755e-04 2.73774e-04 6.03511e-05    42007.812     3294.331
 10   0.369977676916458 1.69643e-04 3.26242e-04 2.30488e-04 5.12873e-05    44148.116     4032.326
 11   0.369934162343054 1.13050e-04 1.76505e-04 1.80432e-04 4.15699e-05    45732.941     4481.073
 12   0.369921207515128 4.20513e-05 8.68980e-05 1.28706e-04 3.08088e-05    46873.489     4802.846
 13   0.369924770129082 4.49043e-05 3.72055e-05 8.30057e-05 2.02269e-05    47679.201     5194.283
 14   0.369928283497337 2.23643e-05 1.61616e-05 4.57786e-05 1.11679e-05    46204.318     5475.563
 15   0.369924515728736 2.43023e-05 8.35923e-06 2.15346e-05 5.17804e-06    45838.888     5647.643
 16   0.369921073895932 1.31378e-05 3.57088e-06 9.16864e-06 2.05140e-06    46819.224     6060.818
 17   0.369920761662905 4.52373e-06 1.87202e-06 3.87976e-06 7.50309e-07    46964.849     6498.451

EOMEE-CCSDTQ iterations converged in 17 cycles and 66275.823 seconds (3898.578 s/it.) at 6.434 Gflops/sec

EOMEE-CCSDTQ excitation energy:   0.369920761662911 ( 10.066055673229492 eV)
Total EOMEE-CCSDTQ energy:      -112.793410963068624

Converged root:

   A    I                     A    I                     A    I                  
-------------------------- -------------------------- -------------------------- 
  12    6  0.3721321286025   15    6  0.1268745223772   30    6  0.0268715848298 
  13    5  0.3720790833643   24    6  0.0749049237551   31    5  0.0268691430145 
  10    5  0.2361309296396   25    5  0.0748887677026   45    6  0.0134732045598 
   9    6  0.2361234699889   21    6  0.0627422799844   46    5  0.0134715733414 
  16    5  0.1268822219902   22    5  0.0627392236547   18    7 -0.0113114754142 

   A    B    I    J                     A    B    I    J                  
------------------------------------ ------------------------------------ 
  13   12    7    7  0.0582364174597   13   13    6    5 -0.0477831720293 
  12   13    7    7  0.0582364174597   13   13    5    6 -0.0477831720293 
  13   12    6    6 -0.0501448655412   10   12    7    7  0.0337063921513 
  12   13    6    6 -0.0501448655412   12   10    7    7  0.0337063921513 
  13   12    5    5 -0.0501351571688   13    9    7    7  0.0336984216210 
  12   13    5    5 -0.0501351571688    9   13    7    7  0.0336984216210 
  12   12    6    5 -0.0477928804016   10   12    6    6 -0.0305235239627 
  12   12    5    6 -0.0477928804016 

 @CHECKOUT-I, Total execution time (CPU/WALL):  6212150.18/  729570.80 seconds.
--executable xncc finished with status     0 in   729581.85 seconds (walltime).
  The final electronic energy is      -112.793410963068624 a.u. 
  This computation required                       729593.54 seconds (walltime).
