 --invoking executable--
/home/CEISAM/blondel-a/soft/cfour2.1/cfour2.1-serial-mkl/bin/xjoda


   *************************************************************************
         <<<     CCCCCC     CCCCCC   |||     CCCCCC     CCCCCC   >>>
       <<<      CCC        CCC       |||    CCC        CCC         >>>
      <<<      CCC        CCC        |||   CCC        CCC            >>>
    <<<        CCC        CCC        |||   CCC        CCC              >>>
      <<<      CCC        CCC        |||   CCC        CCC            >>>
       <<<      CCC        CCC       |||    CCC        CCC         >>>
         <<<     CCCCCC     CCCCCC   |||     CCCCCC     CCCCCC   >>>
   *************************************************************************

     ****************************************************************
     * CFOUR Coupled-Cluster techniques for Computational Chemistry *
     ****************************************************************
 

   Department of Chemistry                Institut fuer Physikalische Chemie
   University of Florida                  Universitaet Mainz
   Gainesville, FL 32611, USA             D-55099 Mainz, Germany

   Department of Chemistry                Fakultaet fuer Chemie und Biowiss.
   Johns Hopkins University               Karlsruher Institut fuer Technologie
   Baltimore, MD 21218, USA               D-76131 Karlsruhe, Germany

   Department of Chemistry                Department of Physical Chemistry
   Southern Methodist University          Eotvos Lorand University
   Dallas, TX 75275, USA                  H-1053 Budapest, Hungary

 
                       Version 2.1
 
                     cribbar056                                        
                     Tue Mar 16 14:39:59 CET 2021                      
                     integer*8 version is running
 
********************************************************************************
*                          Input from ZMAT file                                *
********************************************************************************
Ketene -GS                                                                      
Cl    0.0000000000            0.0000000000           -0.0248978291              
H     0.0000000000            0.0000000000            2.3848313950              
                                                                                
*CFOUR(COORD=CARTESIAN,UNITS=BOHR                                               
       MEMORY=250,MEM_UNIT=GB,CC_PROG=NCC                                       
       FROZEN_CORE=1                                                            
       CALC=CCSDTQ,BASIS=AUG-PVTZ                                               
       SCF_CONV=8,CC_CONV=7,ESTATE_CONV=5,ESTATE_MAXCYC=120                     
       EXCITE=EOMEE,ESTATE_SYM=0/1/0/0)                                         
                                                                                
********************************************************************************
    -------------------------------------------------------------------
                    CFOUR Control Parameters 
    -------------------------------------------------------------------
        External           Internal           Value            Units
          Name               Name
    -------------------------------------------------------------------
       ABCDTYPE             IABCDT         STANDARD    [  0]    ***   
       ANHARMONIC           IANHAR         OFF         [  0]    ***   
       ANH_ALGORIT          IANALG         STANDARD    [  0]    ***   
       ANH_DERIVAT          IANDER         SECOND      [  1]    ***   
       ANH_MODE             ANHMOD         VIBRATION   [  0]    ***   
       ANH_STEPSIZ          ICUBST             50000          x 10-6  
       ANH_SYMMETR          IANHSM         ABELIAN     [  0]    ***   
       AO_LADDERS           IAOLAD         SINGLEPASS  [  1]    ***   
       AV_SCF               IAVSCF         OFF         [  0]    ***   
       BASIS                IBASIS         AUG-PVTZ    [ 34]    ***   
       BOTHVECTORS          BOTHVC         OFF         [  0]    ***   
       BOX_POTENT           IPIAB          OFF         [  0]    ***   
       BREIT                IBREIT         OFF         [  0]    ***   
       BRUCK_CONV           IBRTOL          10D-  4             ***   
       BRUECKNER            IBRKNR         OFF         [  0]    ***   
       BUFFERSIZE           IBUFFS              4096            ***   
       CACHE_RECS           ICHREC             10               ***   
       CALCLEVEL            ICLLVL         CCSDTQ      [ 46]    ***   
       CCORBOPT             ICCORB         OFF         [  0]  x 0.01  
       CC_CONV              ICCCNV          10D-  7             ***   
       CC_EXPORDER          ICCEOR              5               ***   
       CC_EXTRAPOL          ICCEXT         DIIS        [  1]    ***   
       CC_GUESS             ICCGES         MP2         [  0]    ***   
       CC_MAXCYC            ICCCYC            100              cycles 
       CC_PROGRAM           ICCPRO         NCC         [  5]    ***   
       CHARGE               ICHRGE              0               ***   
       CHOLESKY             ICHOLE         OFF         [  0]    ***   
       CIS_CONV             ICISTL              5               ***   
       COMM_SIZE            IPSIZE            ***               ***   
       CONSTANT             ICONST         OLD         [  1]    ***   
       CONTINUUM            ICONTU         NONE        [  0]    ***   
       CONTRACTION          ICNTYP         GENERAL     [  1]    ***   
       COORDINATES          ICOORD         CARTESIAN   [  1]    ***   
       CPHF_CONVER          ICPHFT          10D- 16             ***   
       CPHF_MAXCYC          ICPHFC             64              cycles 
       CUBIC                ICUBIC         OFF         [  0]    ***   
       CURVILINEAR          ICURVY         OFF         [  0]    ***   
       DBOC                 IDBOC          OFF         [  0]    ***   
       DCT                  IDCT           OFF         [  0]    ***   
       DERIV_LEV            IDRLVL         ZERO        [  0]    ***   
       DEVMEM_SIZE          IDVMEM         *********           MByte  
       DIAG_MRCC            IEOMST          10D-  0             ***   
       DIFF_TYPE            IDIFTY         RELAXED     [  0]    ***   
       DIRECT               IDIRCT         OFF         [  0]    ***   
       DROPMO               IDRPMO      NONE         
       ECP                  IECP           OFF         [  0]    ***   
       EIGENVECTOR          IVEC                1               ***   
       EL_ANHARM            IELANH         OFF         [  0]    ***   
       EOMFOLLOW            IEOMSR         ENERGY      [  0]    ***   
       EOMIP                IEOMIP         OFF         [  0]    ***   
       EOMLEVEL             HBARFM         SAME        [  0]    ***   
       EOM_MRCC             IMRCCE         NEW         [  1]    ***   
       EOM_NONIT            EOMNON         OFF         [  0]    ***   
       EOM_NSING            IEOMSI          10D-  0             ***   
       EOM_NSTATES          IMRCCD         DAVIDSON    [  0]    ***   
       EOM_NTRIP            IEOMTR          10D-  0             ***   
       EOM_ORDER            IEXORD         ENERGY      [  0]    ***   
       EOM_PROPSTA          IEOMST              0               ***   
       ESTATE_CONV          IEXTOL          10D-  5             ***   
       ESTATE_DIAG          IEXDIG         ITERATIVE   [  0]    ***   
       ESTATE_LOCK          IESLOC         ON          [  1]    ***   
       ESTATE_MAXC          IEXMXC            120               ***   
       ESTATE_PROP          IEXPRP         OFF         [  0]    ***   
       ESTATE_SYM           IEXSYM   0,  1,  0,  0,
       EVAL_HESS            IRECAL              0            # of cyc.
       EXCITATION           IEXCIT              0               ***   
       EXCITE               IEXCIT         EOMEE       [  3]    ***   
       EXTERN_POT           IEXPOT         OFF         [  0]    ***   
       FCGRADNEW            IFCGNW         OFF         [  0]    ***   
       FC_FIELD             IFINFC              0             x 10-6  
       FD_CALTYPE           IFDCAL         GRADONLY    [  0]    ***   
       FD_PROJECT           IFDPRJ         OFF         [  1]    ***   
       FD_STEPSIZE          IDISFD              0            10-4 bohr
       FD_USEGROUP          IFDGRP         FULL        [  0]    ***   
       FILE_RECSIZ          IFLREC              4096           words  
       FINITE_PERT          IFIPER              0             x 10-6  
       FIXGEOM              IFIXGM         OFF         [  0]    ***   
       FOCK                 IFOCK          AO          [  1]    ***   
       FREQ_ALGORI          IVIALG         STANDARD    [  0]    ***   
       FROZEN_CORE          IFROCO         ON          [  1]    ***   
       GAMMA_ABCD           IGABCD         STORE       [  0]    ***   
       GAMMA_ABCI           IGABCI         STORE       [  0]    ***   
       GENBAS_1             IGNBS1              0               ***   
       GENBAS_2             IGNBS2              0               ***   
       GENBAS_3             IGNBS3              0               ***   
       GENBAS_4             IGNBS4              0               ***   
       GEO_CONV             ICONTL              5              H/bohr 
       GEO_MAXCYC           IOPTCY             50               ***   
       GEO_MAXSTEP          IMXSTP            300            millibohr
       GEO_METHOD           INR            SINGLE_POINT[  5]    ***   
       GIAO                 IGIAO          OFF         [  1]    ***   
       GIMIC                IGIMIC         OFF         [  0]    ***   
       GRID                 IGRID          OFF         [  0]    ***   
       GRID_ALGO            IGALGO         SERIAL      [  0]    ***   
       GUESS                IGUESS         MOREAD      [  0]    ***   
       HBAR                 IHBAR          ON          [  1]    ***   
       HESS_TYPE            IHESTP         SCF         [  0]    ***   
       HF2_FILE             IHF2Fl         USE         [  1]    ***   
       HFSTABILITY          ISTABL         OFF         [  0]    ***   
       INCORE               INCORE         OFF         [  0]    ***   
       INPUT_MRCC           IMRCC          ON          [  1]    ***   
       INTEGRALS            INTTYP         VMOL        [  1]    ***   
       JODA_PRINT           IJPRNT              0               ***   
       KEYWORD_OUT          IDMPKW         NO          [  0]    ***   
       LINDEP_TOL           ILINDP              8               ***   
       LINEQ_CONV           IZTACN          10D-  7           cycles  
       LINEQ_EXPOR          ILMAXD              5               ***   
       LINEQ_MAXCY          ILMAXC            100               ***   
       LINEQ_TYPE           ILTYPE         DIIS        [  1]    ***   
       LOCK_ORBOCC          ILOCOC         OFF         [  0]    ***   
       MEMORY_SIZE          IMEMSZ         *********           words  
       MEM_UNIT             IMEMU          GB          [  3]    ***   
       MRCC                 IMRCCC         OFF         [  0]    ***   
       MULTIPLICTY          IMULTP              1               ***   
       NACOUPLING           IVCOUP         OFF         [  0]    ***   
       NEGEVAL              IDIE           ABORT       [  0]    ***   
       NEWNORM              INEWNO         OFF         [  0]    ***   
       NON-HF               INONHF         OFF         [  0]    ***   
       NTOP_TAMP            ITOPT2             15               ***   
       NUC_MODEL            INUCMO         POINT       [  0]    ***   
       OCCUPATION           IOCCU   ESTIMATED BY SCF 
       OPEN-SHELL           IOPEN          SPIN-ORBITAL[  0]    ***   
       OPTVIB               IOPTVB         OFF         [  0]    ***   
       ORBITALS             IORBTP         STANDARD    [  0]    ***   
       PARALLEL             IPARAL         ON          [  1]    ***   
       PARA_INT             IPINTS         ON          [  1]    ***   
       PARA_PRINT           IPPRIN              0               ***   
       PERT_ORB             IPTORB         STANDARD    [  0]    ***   
       POINTS               IGRDFD              0               ***   
       PRINT                IPRNT               0               ***   
       PROPS                IPROPS         OFF         [  0]    ***   
       PROP_INTEGR          IINTYP         INTERNAL    [  0]    ***   
       PSI                  IPSI           OFF         [  0]    ***   
       QC_ALG               IQCALG         FLM         [  0]    ***   
       QC_LINALG            IQCLIN         TRIDIAG     [  2]    ***   
       QC_MAXCYC            IQCMAX          10D-100           cycles  
       QC_MAXSCFCY          IQCMSC          10D- 15           cycles  
       QC_RTRUST            IQCRTR          10D-  0           x 10-3  
       QC_SKIPSCF           IQCSKI         OFF         [  0]    ***   
       QC_START             IQCSTA          10D-  1             ***   
       QRHFGUESS            IQGUES         OFF         [  0]    ***   
       QUARTIC              IQUART         OFF         [  0]    ***   
       RAMAN_INT            IRAMIN         OFF         [  0]    ***   
       RAMAN_ORB            IRAMRE         UNRELAXED   [  0]    ***   
       RDO                  IRDOFM         OFF         [  0]    ***   
       REDUCE_REPR          REDREP         Ir          [  0]    ***   
       REFERENCE            IREFNC         RHF         [  0]    ***   
       RELATIVIST           IRELAT         OFF         [  0]    ***   
       RELAX_DENS           IRDENS         OFF         [  0]    ***   
       RESET_FLAGS          IRESET         OFF         [  0]    ***   
       RESTART_CC           ICCRES         OFF         [  0]    ***   
       ROT_EVEC             ROTVEC              0               ***   
       SAVE_INTS            ISVINT         OFF         [  0]    ***   
       SCALE_ON             ISTCRT              0               ***   
       SCF_CONV             ISCFCV          10D-  8             ***   
       SCF_DAMPING          IDAMP               0             x 10-3  
       SCF_EXPORDE          IRPPOR              6               ***   
       SCF_EXPSTAR          IRPPLS              8               ***   
       SCF_EXTRAPO          IRPP           ON          [  1]    ***   
       SCF_MAXCYC           ISCFCY            150              cycles 
       SCF_NOSTOP           ISCFST         OFF         [  0]    ***   
       SCF_PRINT            ISCFPR              0               ***   
       SCF_PROG             ISCFPR         SCF         [  0]    ***   
       SD_FIELD             IFINSD              0             x 10-6  
       SOPERT               IPERSO         OFF         [  0]    ***   
       SPHERICAL            IDFGHI         ON          [  1]    ***   
       SPINORBIT            ISOCAL         OFF         [  0]    ***   
       SPINROTATIO          ISRCON         OFF         [  0]    ***   
       SPIN_FLIP            ISPFLP         OFF         [  0]    ***   
       SPIN_ORBIT           ISPORB         OFF         [  0]    ***   
       SPIN_SCAL            ISCSMP         OFF         [  0]    ***   
       STEEPSCALE           ISTPSC              1000          x 10-3  
       SUBGROUP             ISUBGP         DEFAULT     [  0]    ***   
       SUBGRPAXIS           ISBXYZ         X           [  0]    ***   
       SYMMETRY             ISYM           ON          [  0]    ***   
       SYM_CHECK            ISYMCK         OVERRIDE    [  1]    ***   
       T3_EXTRAPOL          IT3EXT         ON          [  1]    ***   
       T4_EXTRAPOL          IT4EXP         OFF         [  0]    ***   
       TAMP_SUM             IEVERY              5               ***   
       TESTSUITE            ITESTS         OFF         [  0]    ***   
       THERMOCH             ITHERM         OFF         [  0]    ***   
       TOL_CHOLESK          ITOLCH          10D-  4             ***   
       TRANGRAD             IRESRM         OFF         [  0]    ***   
       TRANS_INV            ITRAIN         USE         [  0]    ***   
       TREAT_PERT           ITREAT         SIMULTANEOUS[  0]    ***   
       TRIP_ALGORI          ITRALG         NORMAL      [  0]    ***   
       UIJ_THRESHO          IUIJTH              1               ***   
       UNITS                IUNITS         BOHR        [  1]    ***   
       UNOS                 IUNOS          OFF         [  0]    ***   
       UPDATE_HESS          IHUPDT         ON          [  1]    ***   
       VIBPHASE             ISETPH         STANDARD    [  0]    ***   
       VIBRATION            IVIB           NO          [  0]    ***   
       VIB_ALGORIT          IGEALG         STANDARD    [  0]    ***   
       VNATORB              IVNORB         OFF         [  0]    ***   
       VTRAN                IVTRAN         FULL/PARTIAL[  0]    ***   
       XFIELD               IXEFLD              0             x 10-6  
       XFORM_TOL            IXFTOL          10D- 11             ***   
       YFIELD               IYEFLD              0             x 10-6  
       ZFIELD               IZEFLD              0             x 10-6  
       ZSCALE_EXP           IZEXPS         OFF         [  0]    ***   
    -------------------------------------------------------------------
  @GETXYZ-I,     2 atoms read from ZMAT.
   Rotational constants (in cm-1): 
         10.5830905500            10.5830905500
   Rotational constants (in MHz): 
     317273.1173699838        317273.1173699838
********************************************************************************
   The full molecular point group is CXv .
   The largest Abelian subgroup of the full molecular point group is C2v .
   The computational point group is C2v .
********************************************************************************


 ----------------------------------------------------------------
         Coordinates used in calculation (QCOMP) 
 ----------------------------------------------------------------
 Z-matrix   Atomic            Coordinates (in bohr)
  Symbol    Number           X              Y              Z
 ----------------------------------------------------------------
     CL       17        -0.00000000     0.00000000     0.06750444
     H         1         0.00000000     0.00000000    -2.34222479
 ----------------------------------------------------------------
 
   Interatomic distance matrix (Angstroms) 
 
                 CL            H    
                [ 1]        [ 2]
  CL   [ 1]     0.00000
  H    [ 2]     1.27517     0.00000
 rotcon2
   Rotational constants (in cm-1): 
         10.5830905500             0.0000000000
   Rotational constants (in MHz): 
     317273.1173699838             0.0000000000
  There are   5 frozen-core orbitals.
  There are   73 basis functions.
 @GEOPT-W, Archive file not created for single-point calculation.
 @CHECKOUT-I, Total execution time (CPU/WALL):        0.17/       4.51 seconds.
--executable xjoda finished with status     0 in        7.72 seconds (walltime).
 --invoking executable--
/home/CEISAM/blondel-a/soft/cfour2.1/cfour2.1-serial-mkl/bin/xvmol
 SERIAL VERSION OF MOLECULE STARTED
********************************************************************************
                    INPUT FROM MOL FILE
********************************************************************************
INTGRL        1    0    1    0    0    0    0    0    0                         
         *** CFOUR Program System (Release V0.1) ***                            
Ketene -GS                                                                      
    2    2 X  Y       0.10E-08              0    0                              
   9999.00      3.00                                                            
         17.00000000    1    4    1    1    1    1                              
CL#1  -0.000000000000000   0.000000000000000   0.067504438739180                
   16    6                                                                      
   456100.000000000       4.930000000000000E-005 -1.380000000000000E-005        
  4.200000000000000E-006  0.000000000000000E+000  0.000000000000000E+000        
  0.000000000000000E+000                                                        
   68330.0000000000       3.830000000000000E-004 -1.073000000000000E-004        
  3.240000000000000E-005  0.000000000000000E+000  0.000000000000000E+000        
  0.000000000000000E+000                                                        
   15550.0000000000       2.008500000000000E-003 -5.651000000000000E-004        
  1.711000000000000E-004  0.000000000000000E+000  0.000000000000000E+000        
  0.000000000000000E+000                                                        
   4405.00000000000       8.385600000000000E-003 -2.361400000000000E-003        
  7.142000000000000E-004  0.000000000000000E+000  0.000000000000000E+000        
  0.000000000000000E+000                                                        
   1439.00000000000       2.947030000000000E-002 -8.458900000000000E-003        
  2.567000000000000E-003  0.000000000000000E+000  0.000000000000000E+000        
  0.000000000000000E+000                                                        
   520.400000000000       8.783249999999999E-002 -2.596380000000000E-002        
  7.885500000000000E-003  0.000000000000000E+000  0.000000000000000E+000        
  0.000000000000000E+000                                                        
   203.100000000000       0.211473000000000      -6.863619999999999E-002        
  2.108670000000000E-002  0.000000000000000E+000  0.000000000000000E+000        
  0.000000000000000E+000                                                        
   83.9600000000000       0.365364000000000      -0.141874000000000             
  4.422640000000000E-002  0.000000000000000E+000  0.000000000000000E+000        
  0.000000000000000E+000                                                        
   36.2000000000000       0.340884000000000      -0.199319000000000             
  6.516700000000000E-002  0.000000000000000E+000  0.000000000000000E+000        
  0.000000000000000E+000                                                        
   15.8300000000000       0.102133000000000      -1.956620000000000E-002        
  6.030100000000000E-003  0.000000000000000E+000  0.000000000000000E+000        
  0.000000000000000E+000                                                        
   6.33400000000000       3.116800000000000E-003  0.499741000000000             
 -0.206495000000000       0.000000000000000E+000  0.000000000000000E+000        
  0.000000000000000E+000                                                        
   2.69400000000000       1.057500000000000E-003  0.563736000000000             
 -0.405871000000000       0.000000000000000E+000  0.000000000000000E+000        
  0.000000000000000E+000                                                        
  0.976800000000000      -3.780000000000000E-004  7.903250000000001E-002        
  7.595580000000000E-002   1.00000000000000       0.000000000000000E+000        
  0.000000000000000E+000                                                        
  0.431300000000000       1.561000000000000E-004 -8.350900000000000E-003        
  0.725661000000000       0.000000000000000E+000  0.000000000000000E+000        
  0.000000000000000E+000                                                        
  0.162500000000000      -5.140000000000000E-005  2.324600000000000E-003        
  0.394423000000000       0.000000000000000E+000   1.00000000000000             
  0.000000000000000E+000                                                        
  5.910000000000000E-002  0.000000000000000E+000  0.000000000000000E+000        
  0.000000000000000E+000  0.000000000000000E+000  0.000000000000000E+000        
   1.00000000000000                                                             
   10    5                                                                      
   663.300000000000       2.404500000000000E-003 -6.521000000000000E-004        
  0.000000000000000E+000  0.000000000000000E+000  0.000000000000000E+000        
   156.800000000000       1.921480000000000E-002 -5.194500000000000E-003        
  0.000000000000000E+000  0.000000000000000E+000  0.000000000000000E+000        
   49.9800000000000       8.850970000000000E-002 -2.469380000000000E-002        
  0.000000000000000E+000  0.000000000000000E+000  0.000000000000000E+000        
   18.4200000000000       0.256020000000000      -7.281670000000000E-002        
  0.000000000000000E+000  0.000000000000000E+000  0.000000000000000E+000        
   7.24000000000000       0.436927000000000      -0.134030000000000             
  0.000000000000000E+000  0.000000000000000E+000  0.000000000000000E+000        
   2.92200000000000       0.350334000000000      -9.477420000000000E-002        
  0.000000000000000E+000  0.000000000000000E+000  0.000000000000000E+000        
   1.02200000000000       5.854950000000000E-002  0.262289000000000             
   1.00000000000000       0.000000000000000E+000  0.000000000000000E+000        
  0.381800000000000      -4.584200000000000E-003  0.564667000000000             
  0.000000000000000E+000  0.000000000000000E+000  0.000000000000000E+000        
  0.130100000000000       2.269700000000000E-003  0.341250000000000             
  0.000000000000000E+000   1.00000000000000       0.000000000000000E+000        
  4.190000000000000E-002  0.000000000000000E+000  0.000000000000000E+000        
  0.000000000000000E+000  0.000000000000000E+000   1.00000000000000             
    3    3                                                                      
   1.04600000000000        1.00000000000000       0.000000000000000E+000        
  0.000000000000000E+000                                                        
  0.344000000000000       0.000000000000000E+000   1.00000000000000             
  0.000000000000000E+000                                                        
  0.135000000000000       0.000000000000000E+000  0.000000000000000E+000        
   1.00000000000000                                                             
    2    2                                                                      
  0.706000000000000        1.00000000000000       0.000000000000000E+000        
  0.312000000000000       0.000000000000000E+000   1.00000000000000             
          1.00000000    1    3    1    1    1                                   
H #2   0.000000000000000   0.000000000000000  -2.342224785360820                
    6    4                                                                      
   33.8700000000000       6.068000000000000E-003  0.000000000000000E+000        
  0.000000000000000E+000  0.000000000000000E+000                                
   5.09500000000000       4.530800000000000E-002  0.000000000000000E+000        
  0.000000000000000E+000  0.000000000000000E+000                                
   1.15900000000000       0.202822000000000       0.000000000000000E+000        
  0.000000000000000E+000  0.000000000000000E+000                                
  0.325800000000000       0.503903000000000        1.00000000000000             
  0.000000000000000E+000  0.000000000000000E+000                                
  0.102700000000000       0.383421000000000       0.000000000000000E+000        
   1.00000000000000       0.000000000000000E+000                                
  2.526000000000000E-002  0.000000000000000E+000  0.000000000000000E+000        
  0.000000000000000E+000   1.00000000000000                                     
    3    3                                                                      
   1.40700000000000        1.00000000000000       0.000000000000000E+000        
  0.000000000000000E+000                                                        
  0.388000000000000       0.000000000000000E+000   1.00000000000000             
  0.000000000000000E+000                                                        
  0.102000000000000       0.000000000000000E+000  0.000000000000000E+000        
   1.00000000000000                                                             
    2    2                                                                      
   1.05700000000000        1.00000000000000       0.000000000000000E+000        
  0.247000000000000       0.000000000000000E+000   1.00000000000000             
FINISH                                                                          
 
********************************************************************************
 ONE- AND TWO-ELECTRON INTEGRALS OVER SYMMETRY-ADAPTED AOS ARE CALCULATED.

  SPHERICAL HARMONICS ARE USED.
  
  INTEGRALS LESS THAN  0.10E-13 ARE NEGLECTED.

  NUCLEAR REPULSION ENERGY :    7.0547345444 A.U.
  @MOLECU-I, ONE ELECTRON INTEGRALS (CPU/WALL):        0.04/       0.08 SECONDS.
  @TWOEL-I,      89758 INTEGRALS OF SYMMETRY TYPE  I I I I
  @TWOEL-I,     292269 INTEGRALS OF SYMMETRY TYPE  I J I J
  @TWOEL-I,     161472 INTEGRALS OF SYMMETRY TYPE  I I J J
  @TWOEL-I,     159185 INTEGRALS OF SYMMETRY TYPE  I J K L
  @TWOEL-I, TOTAL NUMBER OF 2-E INTEGRALS     702684.
  @MOLECU-I, TWO ELECTRON INTEGRALS (CPU/WALL):       13.89/       0.71 SECONDS.
 @CHECKOUT-I, Total execution time (CPU/WALL):       14.23/       0.82 seconds.

Running with 20 threads/proc

--executable xvmol finished with status     0 in        2.90 seconds (walltime).
 --invoking executable--
/home/CEISAM/blondel-a/soft/cfour2.1/cfour2.1-serial-mkl/bin/xvmol2ja
 @GETMEM-I,  Allocated  238418 MB of main memory.
 @CHECKOUT-I, Total execution time (CPU/WALL):        0.17/       1.02 seconds.
--executable xvmol2ja finished with status     0 in        8.12 seconds (walltime).
 --invoking executable--
/home/CEISAM/blondel-a/soft/cfour2.1/cfour2.1-serial-mkl/bin/xvscf
  There are   73 functions in the AO basis.

  There are 4 irreducible representations.

       Irrep        # of functions
         1                 32
         2                 17
         3                 17
         4                  7


  Parameters for SCF calculation: 
        SCF reference function:  RHF  
  Maximum number of iterations:  150
     Full symmetry point group: CXv 
     Computational point group: C2v 
        Initial density matrix: MOREAD                 
     SCF convergence tolerance: 10**(- 8)
  DIIS convergence acceleration:  ON
          Latest start for DIIS:   8
                     DIIS order:   6

  Memory information:     272912 words required.
  Fock matrices are constructed from AO integral file.
 @GETMEM-I,  Allocated       2 MB of main memory.
  Initialization and symmetry analysis required      0.003 seconds.

  @INITGES-I, Occupancies from core Hamiltonian:

          Alpha population by irrep:   5    2    2    0
           Beta population by irrep:   5    2    2    0


 total no. of electrons in initial guess :  0.000000000000000E+000
  --------------------------------------------------------------------
  Iteration         Total Energy            Largest Density Difference
  --------------------------------------------------------------------
       0             7.054734544437980              0.0000000000D+00
   current occupation vector 
     5  2  2  0
     5  2  2  0
       1          -443.089690654016863              0.1801399933D+02
   current occupation vector 
     5  2  2  0
     5  2  2  0
       2          -450.215420878195630              0.1689362829D+02
   current occupation vector 
     5  2  2  0
     5  2  2  0
       3          -457.583215335872808              0.1585196896D+02
   current occupation vector 
     5  2  2  0
     5  2  2  0
       4          -458.939069687545725              0.1812797480D+01
   current occupation vector 
     5  2  2  0
     5  2  2  0
       5          -459.861905750772564              0.1269413501D+01
   current occupation vector 
     5  2  2  0
     5  2  2  0
       6          -460.070786052378082              0.6782510891D+00
   current occupation vector 
     5  2  2  0
     5  2  2  0
       7          -460.102690296771584              0.2154400309D+00
   current occupation vector 
     5  2  2  0
     5  2  2  0
       8          -460.107572245516451              0.7516381845D-01
   current occupation vector 
     5  2  2  0
     5  2  2  0
       9          -460.107591643646458              0.4957513391D-02
   current occupation vector 
     5  2  2  0
     5  2  2  0
      10          -460.107593664212914              0.2374301283D-02
   current occupation vector 
     5  2  2  0
     5  2  2  0
      11          -460.107593807475496              0.3815570747D-03
   current occupation vector 
     5  2  2  0
     5  2  2  0
      12          -460.107593808932279              0.4462786496D-04
   current occupation vector 
     5  2  2  0
     5  2  2  0
      13          -460.107593808952515              0.3884429234D-05
   current occupation vector 
     5  2  2  0
     5  2  2  0
      14          -460.107593808952231              0.9174655828D-06
   current occupation vector 
     5  2  2  0
     5  2  2  0
      15          -460.107593808952515              0.2366170249D-06
   current occupation vector 
     5  2  2  0
     5  2  2  0
      16          -460.107593808952799              0.8441914678D-07
   current occupation vector 
     5  2  2  0
     5  2  2  0
      17          -460.107593808953368              0.2103637797D-07
   current occupation vector 
     5  2  2  0
     5  2  2  0

  SCF has converged.

 Density matrix saved to file den.dat
 total electron number:   18.0000000000000     
     E(SCF)=      -460.107593808953141              0.7532392710D-08

  Eigenvector printing suppressed.

 @PUTMOS-I, Writing converged MOs to NEWMOS. 
 @PUTMOS-I, Symmetry   1 Full Blocks  8 Partial Blocksize   0
 @PUTMOS-I, Symmetry   2 Full Blocks  4 Partial Blocksize   1
 @PUTMOS-I, Symmetry   3 Full Blocks  4 Partial Blocksize   1
 @PUTMOS-I, Symmetry   4 Full Blocks  1 Partial Blocksize   3
 @PUTFOCK-I, Writing converged Fock matrix to NEWFOCK. 
 @PUTFOCK-I, Symmetry   1 Full Blocks  8 Partial Blocksize   0
 @PUTFOCK-I, Symmetry   2 Full Blocks  4 Partial Blocksize   1
 @PUTFOCK-I, Symmetry   3 Full Blocks  4 Partial Blocksize   1
 @PUTFOCK-I, Symmetry   4 Full Blocks  1 Partial Blocksize   3


 
  ORBITAL EIGENVALUES (ALPHA)  (1H = 27.2113834 eV)

       MO #        E(hartree)               E(eV)           FULLSYM    COMPSYM
       ----   --------------------   --------------------   -------   ---------
    1     1        -104.8505619032       -2853.1288396531     SG+        A1 (1)
    2     2         -10.5754154858        -287.7716853981     SG+        A1 (1)
    3     3          -8.0425350863        -218.8485057412     SG+        A1 (1)
    4    33          -8.0403931334        -218.7902202407      PI        B1 (2)
    5    50          -8.0403931334        -218.7902202407      PI        B2 (3)
    6     4          -1.1175723588         -30.4106899328     SG+        A1 (1)
    7     5          -0.6255300631         -17.0215383755     SG+        A1 (1)
    8    34          -0.4772466841         -12.9865424963      PI        B1 (2)
    9    51          -0.4772466841         -12.9865424963      PI        B2 (3)
  +++++++++++++++++++++++++++++++++++++++++++++++++++++++++++++++++++++++++++++
   10     6           0.0294997283           0.8027284174     SG+        A1 (1)
   11     7           0.1057282995           2.8770132934     SG+        A1 (1)
   12    35           0.1154404952           3.1412955746      PI        B1 (2)
   13    52           0.1154404952           3.1412955746      PI        B2 (3)
   14     8           0.1455740122           3.9612702579     SG+        A1 (1)
   15     9           0.1924650809           5.2372411064     SG+        A1 (1)
   16    53           0.2394741368           6.5164225519      PI        B2 (3)
   17    36           0.2394741368           6.5164225519      PI        B1 (2)
   18    10           0.3480641637           9.4713074071     SG+        A1 (1)
   19    11           0.3496535664           9.5145572533      DE        A1 (1)
   20    67           0.3496535664           9.5145572533      DE        A2 (4)
   21    12           0.4300788481          11.7030404278     SG+        A1 (1)
   22    37           0.4363651562          11.8740995670      PI        B1 (2)
   23    54           0.4363651562          11.8740995670      PI        B2 (3)
   24    13           0.6243549764          16.9895626416     SG+        A1 (1)
   25    55           0.6299039837          17.1405588065      PI        B2 (3)
   26    38           0.6299039837          17.1405588065      PI        B1 (2)
   27    14           0.6656718952          18.1138531591     SG+        A1 (1)
   28    56           0.8535545732          23.2264007428      PI        B2 (3)
   29    39           0.8535545732          23.2264007428      PI        B1 (2)
   30    15           0.8610198233          23.4295405279      DE        A1 (1)
   31    68           0.8610198233          23.4295405279      DE        A2 (4)
   32    16           0.9199385987          25.0328019134     SG+        A1 (1)
   33    17           0.9352438491          25.4492789502      DE        A1 (1)
   34    69           0.9352438491          25.4492789502      DE        A2 (4)
   35    57           0.9689822926          26.3673486717      PI        B2 (3)
   36    40           0.9689822926          26.3673486717      PI        B1 (2)
   37    18           1.0889986340          29.6331593526     SG+        A1 (1)
   38    58           1.1886284064          32.3442232865      PH        B2 (3)
   39    41           1.1886284064          32.3442232865      PH        B1 (2)
   40    42           1.2958231243          35.2611398543      PI        B1 (2)
   41    59           1.2958231243          35.2611398543      PI        B2 (3)
   42    19           1.3030280534          35.4571959409     SG+        A1 (1)
   43    70           1.3750829265          37.4179087185      DE        A2 (4)
   44    20           1.3750829265          37.4179087185      DE        A1 (1)
   45    60           1.7591936486          47.8700928481      PI        B2 (3)
   46    43           1.7591936486          47.8700928481      PI        B1 (2)
   47    21           1.7695946023          48.1531171852     SG+        A1 (1)
   48    22           1.8650588248          50.7508307448     SG+        A1 (1)
   49    23           2.5045566619          68.1524515750     SG+        A1 (1)
   50    71           2.5148060491          68.4313515776      DE        A2 (4)
   51    24           2.5148060491          68.4313515776      DE        A1 (1)
   52    61           2.5593318519          69.6429602701      PI        B2 (3)
   53    44           2.5593318519          69.6429602701      PI        B1 (2)
   54    62           2.8347280101          77.1368707180      PI        B2 (3)
   55    45           2.8347280101          77.1368707180      PI        B1 (2)
   56    25           2.9110178002          79.2128214448     SG+        A1 (1)
   57    63           3.0297188707          82.4428417835      PI        B2 (3)
   58    46           3.0297188707          82.4428417835      PI        B1 (2)
   59    64           3.0563795145          83.1683147861      PH        B2 (3)
   60    47           3.0563795145          83.1683147861      PH        B1 (2)
   61    72           3.0616035922          83.3104691671      DE        A2 (4)
   62    26           3.0616035922          83.3104691671      DE        A1 (1)
   63    27           3.3066408564          89.9782721107     SG+        A1 (1)
   64    28           3.6122241694          98.2936168009     SG+        A1 (1)
   65    73           3.9091240201         106.3726724699      DE        A2 (4)
   66    29           3.9091240201         106.3726724699      DE        A1 (1)
   67    65           4.3925090012         119.5262465187      PI        B2 (3)
   68    48           4.3925090012         119.5262465187      PI        B1 (2)
   69    66           4.4937419279         122.2809345004      PI        B2 (3)
   70    49           4.4937419279         122.2809345004      PI        B1 (2)
   71    30           4.7585631021         129.4870850038     SG+        A1 (1)
   72    31           5.1331665115         139.6805620010     SG+        A1 (1)
   73    32           7.5198430281         204.6253317448     SG+        A1 (1)


  VSCF finished.

 @CHECKOUT-I, Total execution time (CPU/WALL):        4.92/       1.17 seconds.
--executable xvscf finished with status     0 in        2.78 seconds (walltime).
 --invoking executable--
/home/CEISAM/blondel-a/soft/cfour2.1/cfour2.1-serial-mkl/bin/xvtran
 @GETMEM-I,  Allocated  238418 MB of main memory.
  Full RHF integral transformation
  The following   5 MOs will be dropped:
    1  2  3  6  8
  There are  68 active molecular orbitals.
  Transformation of IIII integrals :
  1 pass through the AO integral file was required.
       89758 AO integrals were read.
      109389 MO integrals were written to HF2.
  Transformation of IIJJ integrals :
  1 pass through the AO integral file was required.
      161472 AO integrals were read.
      155864 MO integrals were written to HF2.
  Transformation of IJIJ integrals :
  1 pass through the AO integral file was required.
      292269 AO integrals were read.
      277747 MO integrals were written to HF2.
  Transformation of IJKL integrals :
  1 pass through the AO integral file was required.
      159185 AO integrals were read.
      152570 MO integrals were written to HF2.
  Summary of active molecular orbitals: 
------------------------------------------------------------------------
 
  Index      Eigenvalue    Symmetry    Index      Eigenvalue    Symmetry
------------------------------------------------------------------------
     1        -1.1175724        1        35         0.6299040        2
     2        -0.6255301        1        36         0.8535546        2
     3        -0.4772467        2        37         0.9689823        2
     4        -0.4772467        3        38         1.1886284        2
     5         0.0294997        1        39         1.2958231        2
     6         0.1057283        1        40         1.7591936        2
     7         0.1455740        1        41         2.5593319        2
     8         0.1924651        1        42         2.8347280        2
     9         0.3480642        1        43         3.0297189        2
    10         0.3496536        1        44         3.0563795        2
    11         0.4300788        1        45         4.3925090        2
    12         0.6243550        1        46         4.4937419        2
    13         0.6656719        1        47         0.1154405        3
    14         0.8610198        1        48         0.2394741        3
    15         0.9199386        1        49         0.4363652        3
    16         0.9352438        1        50         0.6299040        3
    17         1.0889986        1        51         0.8535546        3
    18         1.3030281        1        52         0.9689823        3
    19         1.3750829        1        53         1.1886284        3
    20         1.7695946        1        54         1.2958231        3
    21         1.8650588        1        55         1.7591936        3
    22         2.5045567        1        56         2.5593319        3
    23         2.5148060        1        57         2.8347280        3
    24         2.9110178        1        58         3.0297189        3
    25         3.0616036        1        59         3.0563795        3
    26         3.3066409        1        60         4.3925090        3
    27         3.6122242        1        61         4.4937419        3
    28         3.9091240        1        62         0.3496536        4
    29         4.7585631        1        63         0.8610198        4
    30         5.1331665        1        64         0.9352438        4
    31         7.5198430        1        65         1.3750829        4
    32         0.1154405        2        66         2.5148060        4
    33         0.2394741        2        67         3.0616036        4
    34         0.4363652        2        68         3.9091240        4
------------------------------------------------------------------------
  -1.11757235881068      -0.625530063110627      -0.477246684057036     
 -0.477246684057032       2.949972831590683E-002  0.105728299481452     
  0.145574012156034       0.192465080861090       0.348064163731889     
  0.349653566428257       0.430078848096138       0.624354976438018     
  0.665671895208338       0.861019823340721       0.919938598690937     
  0.935243849093667        1.08899863402829        1.30302805335733     
   1.37508292645376        1.76959460228056        1.86505882478682     
   2.50455666193862        2.51480604905948        2.91101780017418     
   3.06160359223452        3.30664085643872        3.61222416942212     
   3.90912402012853        4.75856310208100        5.13316651151857     
   7.51984302807762       0.115440495191997       0.239474136840170     
  0.436365156173346       0.629903983732700       0.853554573150271     
  0.968982292596813        1.18862840639391        1.29582312431423     
   1.75919364864243        2.55933185190688        2.83472801011786     
   3.02971887065282        3.05637951454005        4.39250900116713     
   4.49374192788603       0.115440495192001       0.239474136840163     
  0.436365156173349       0.629903983732645       0.853554573150264     
  0.968982292596797        1.18862840639389        1.29582312431424     
   1.75919364864233        2.55933185190673        2.83472801011762     
   3.02971887065277        3.05637951454003        4.39250900116697     
   4.49374192788601       0.349653566428263       0.861019823340724     
  0.935243849093671        1.37508292645374        2.51480604905941     
   3.06160359223447        3.90912402012849     
 @CHECKOUT-I, Total execution time (CPU/WALL):        4.12/       0.34 seconds.
--executable xvtran finished with status     0 in        1.79 seconds (walltime).
 --invoking executable--
/home/CEISAM/blondel-a/soft/cfour2.1/cfour2.1-serial-mkl/bin/xintprc
 @GETMEM-I,  Allocated  238418 MB of main memory.
  @GMOIAA-I, Processing MO integrals for spin case AA.
  @GMOIAA-I, Generation of integral list completed.
                      TYPE                NUMBER
                      ----               --------
                      PPPP                544508
                      PPPH                135984
                      PPHH                  8669
                      PHPH                  5670
                      PHHH                   717
                      HHHH                    22

                     TOTAL                695570

  @FORMT2-I, Second-order MP correlation energies:
            ------------------------------------------------
            E(SCF)                  =   -460.107593808953 a.u.
            E2(AA)                  =     -0.024091643034 a.u.
            E2(AB)                  =     -0.159352883043 a.u.
            E2(TOT)                 =     -0.207536169111 a.u.
            Total MP2 energy        =   -460.315129978064 a.u.
            ------------------------------------------------
   Largest T2 amplitudes for spin case AB:
       _       _                 _       _                 _       _
   i   j   a   b             i   j   a   b             i   j   a   b
-----------------------------------------------------------------------------
[  2   2   7   7]-0.02141 [  4   4  50  50]-0.02137 [  3   3  35  35]-0.02137
[  3   3  10  10]-0.01827 [  4   4  62  62]-0.01827 [  3   3  62  62]-0.01827
[  4   4  10  10]-0.01827 [  2   2   9   9]-0.01799 [  3   3  16  16]-0.01771
[  4   4  16  16]-0.01771 [  3   3  64  64]-0.01771 [  4   4  64  64]-0.01771
[  3   3  34  34]-0.01598 [  4   4  49  49]-0.01598 [  2   2   9   7] 0.01597
-----------------------------------------------------------------------------
   Norm of T2AB vector (    17184 symmetry allowed elements):  0.2341087003.
-----------------------------------------------------------------------------
 @CHECKOUT-I, Total execution time (CPU/WALL):        0.77/       2.21 seconds.
--executable xintprc finished with status     0 in        4.25 seconds (walltime).
  calling xncc 
 --invoking executable--
/home/CEISAM/blondel-a/soft/cfour2.1/cfour2.1-serial-mkl/bin/xncc
 @GETMEM-I,  Allocated       7 MB of main memory.

Running with 20 threads/proc

Following the lowest-energy eigenvector.
Using discrete restarting.
Using an orthogonal subspace.
Orthogonalizing against previous roots.
Using Modified Gram-Schmidt orthogonalization.

Using DIIS to accelerate the convergence of T1 and T2
Using DIIS to accelerate the convergence of T3
Using immediate high-order contributions
Performing 2 CCSDT sub-iterations
Damping factor for T3: 0.000000
Damping factor for T4: 0.000000

Transposes are coarse-threaded

Memory limit:                232.831 GiB
Minimum memory requirement:  228.165 MiB
Compromise memory amount:     40.119 GiB
Optimal memory requirement:   41.382 GiB

List              Location   Size        Cached Hunks Est. Disk I/O
----------------- ---------- ----------- ------ ----- -------------

           HR_DAV      470:1    4.084 MiB    Yes     -   225.879 MiB
                R        471  128.500 KiB    Yes     -    11.294 MiB
            R_DAV      470:0    4.084 MiB    Yes     -   437.954 MiB
           T_DIIS       70:0  674.531 KiB    Yes     -    11.857 MiB
           Z_DIIS       70:1  674.531 KiB    Yes     -    19.762 MiB
          <AI|bj>         18  134.250 KiB    Yes     -    20.515 MiB
          <Ab|Cd>        233   32.611 MiB    Yes     -    63.343 GiB
          <Ab|Ci>         30    2.061 MiB    Yes     -     3.862 GiB
          <Ab|Ij>         16  134.250 KiB    Yes     -   400.690 MiB
          <Ai|Bj>         25  134.250 KiB    Yes     -    18.092 MiB
          <Aj|bI>         21  134.250 KiB     No     -         0   B
          <Ij|Ka>         10    8.625 KiB    Yes     -    20.020 MiB
          <Ij|Kl>         13      576   B    Yes     -    25.875 KiB
           DD(AI)      448:8      672   B    Yes     -     8.000 KiB
        DD(Ab,Ij)        450  134.250 KiB    Yes     -     2.000 MiB
            F(EA)       92:0    9.594 KiB    Yes     -     6.080 MiB
            F(EM)       93:0      672   B    Yes     -   381.281 KiB
            F(MI)       91:0       48   B    Yes     -    46.594 KiB
           HR(AI)      490:2      672   B    Yes     -   555.000 KiB
        HR(Ab,Ij)        463  134.250 KiB    Yes     -   242.525 MiB
            Q(AI)      190:2      672   B    Yes     -   236.250 KiB
         Q(Ab,Ij)         50  134.250 KiB    Yes     -   200.588 MiB
        QQ(Ab,Ij)          3  134.250 KiB    Yes     -    32.119 MiB
            R(AI)      490:0      672   B    Yes     -     1.538 MiB
         R(Ab,Ij)        446  134.250 KiB    Yes     -   469.400 MiB
            T(AI)       90:0      672   B    Yes     -   928.594 KiB
         T(Ab,Ij)         46  134.250 KiB    Yes     -   363.677 MiB
         W(Mn,Ij)         53      576   B    Yes     -   678.375 KiB
        W~(Ab,Ej)        130    2.061 MiB    Yes     -     3.253 GiB
        W~(EM,bj)         56  134.250 KiB    Yes     -   204.728 MiB
        W~(Em,Bj)         58  134.250 KiB    Yes     -   306.520 MiB
        W~(Ij,Mb)        110    8.625 KiB    Yes     -    13.712 MiB
       W~~(Ab,Ej)        169    2.061 MiB    Yes     -     1.300 GiB
       W~~(EM,bj)         76  134.250 KiB    Yes     -    48.246 MiB
       W~~(Em,Bj)         78  134.250 KiB    Yes     -    48.246 MiB
       W~~(Ij,Mb)        165    8.625 KiB    Yes     -     5.441 MiB
         X(Ab,Ef)        433   32.611 MiB    Yes     -    14.062 GiB
         X(Ab,Ej)        430    2.061 MiB    Yes     -     1.318 GiB
         X(Ab,Ij)        416  134.250 KiB     No     -         0   B
            X(EA)      492:0    9.594 KiB    Yes     -     1.751 MiB
            X(EM)      493:0      672   B    Yes     -    82.500 KiB
         X(EM,bj)        418  134.250 KiB    Yes     -    54.375 MiB
         X(Ef,Am)        469    2.061 MiB    Yes     -   840.000 MiB
         X(Em,Bj)        425  134.250 KiB    Yes     -    95.625 MiB
         X(Ij,Mb)        410    8.625 KiB    Yes     -     6.940 MiB
            X(MI)      491:0       48   B    Yes     -    10.781 KiB
         X(Mn,Ie)        465    8.625 KiB    Yes     -     6.119 MiB
         X(Mn,Ij)        413      576   B    Yes     -   230.625 KiB
            Z(AI)       90:2      672   B    Yes     -   236.250 KiB
         Z(Ab,Ij)         63  134.250 KiB    Yes     -    47.197 MiB
      HR(abc,ijk)    HR3FILE    8.122 MiB    Yes     1     5.391 GiB
    HR(abcd,ijkl)    HR4FILE  611.053 MiB    Yes     1   391.874 GiB
            HR3_1      HR3_1    8.122 MiB    Yes     1     3.195 GiB
           HR3_10     HR3_10    8.122 MiB    Yes     1   744.000 MiB
           HR3_11     HR3_11    8.122 MiB    Yes     1   200.000 MiB
           HR3_12     HR3_12    8.122 MiB    Yes     1   200.000 MiB
           HR3_13     HR3_13    8.122 MiB    Yes     1   200.000 MiB
           HR3_14     HR3_14    8.122 MiB    Yes     1   200.000 MiB
           HR3_15     HR3_15    8.122 MiB    Yes     1   200.000 MiB
           HR3_16     HR3_16    8.122 MiB    Yes     1   200.000 MiB
           HR3_17     HR3_17    8.122 MiB    Yes     1   200.000 MiB
           HR3_18     HR3_18    8.122 MiB    Yes     1   200.000 MiB
           HR3_19     HR3_19    8.122 MiB    Yes     1   200.000 MiB
            HR3_2      HR3_2    8.122 MiB    Yes     1   760.000 MiB
           HR3_20     HR3_20    8.122 MiB    Yes     1   200.000 MiB
           HR3_21     HR3_21    8.122 MiB    Yes     1   328.000 MiB
           HR3_22     HR3_22    8.122 MiB    Yes     1   328.000 MiB
           HR3_23     HR3_23    8.122 MiB    Yes     1   328.000 MiB
           HR3_24     HR3_24    8.122 MiB    Yes     1   328.000 MiB
           HR3_25     HR3_25    8.122 MiB    Yes     1   328.000 MiB
           HR3_26     HR3_26    8.122 MiB    Yes     1   328.000 MiB
           HR3_27     HR3_27    8.122 MiB    Yes     1   328.000 MiB
           HR3_28     HR3_28    8.122 MiB    Yes     1   328.000 MiB
           HR3_29     HR3_29    8.122 MiB    Yes     1   328.000 MiB
            HR3_3      HR3_3    8.122 MiB    Yes     1   768.000 MiB
           HR3_30     HR3_30    8.122 MiB    Yes     1   328.000 MiB
           HR3_31     HR3_31    8.122 MiB     No     1         0   B
            HR3_4      HR3_4    8.122 MiB    Yes     1   776.000 MiB
            HR3_5      HR3_5    8.122 MiB    Yes     1   784.000 MiB
            HR3_6      HR3_6    8.122 MiB    Yes     1   792.000 MiB
            HR3_7      HR3_7    8.122 MiB    Yes     1   800.000 MiB
            HR3_8      HR3_8    8.122 MiB    Yes     1   808.000 MiB
            HR3_9      HR3_9    8.122 MiB    Yes     1   816.000 MiB
            HR4_1      HR4_1  611.053 MiB    Yes     1   242.843 GiB
           HR4_10     HR4_10  611.053 MiB    Yes     1    55.219 GiB
           HR4_11     HR4_11  611.053 MiB    Yes     1    14.844 GiB
           HR4_12     HR4_12  611.053 MiB    Yes     1    14.844 GiB
           HR4_13     HR4_13  611.053 MiB    Yes     1    14.844 GiB
           HR4_14     HR4_14  611.053 MiB    Yes     1    14.844 GiB
           HR4_15     HR4_15  611.053 MiB    Yes     1    14.844 GiB
           HR4_16     HR4_16  611.053 MiB    Yes     1    14.844 GiB
           HR4_17     HR4_17  611.053 MiB    Yes     1    14.844 GiB
           HR4_18     HR4_18  611.053 MiB    Yes     1    14.844 GiB
           HR4_19     HR4_19  611.053 MiB    Yes     1    14.844 GiB
            HR4_2      HR4_2  611.053 MiB    Yes     1    56.406 GiB
           HR4_20     HR4_20  611.053 MiB    Yes     1    14.844 GiB
           HR4_21     HR4_21  611.053 MiB    Yes     1    24.344 GiB
           HR4_22     HR4_22  611.053 MiB    Yes     1    24.344 GiB
           HR4_23     HR4_23  611.053 MiB    Yes     1    24.344 GiB
           HR4_24     HR4_24  611.053 MiB    Yes     1    24.344 GiB
           HR4_25     HR4_25  611.053 MiB    Yes     1    24.344 GiB
           HR4_26     HR4_26  611.053 MiB    Yes     1    24.344 GiB
           HR4_27     HR4_27  611.053 MiB    Yes     1    24.344 GiB
           HR4_28     HR4_28  611.053 MiB    Yes     1    24.344 GiB
           HR4_29     HR4_29  611.053 MiB    Yes     1    24.344 GiB
            HR4_3      HR4_3  611.053 MiB    Yes     1    57.000 GiB
           HR4_30     HR4_30  611.053 MiB    Yes     1    24.344 GiB
           HR4_31     HR4_31  611.053 MiB     No     1         0   B
            HR4_4      HR4_4  611.053 MiB    Yes     1    57.594 GiB
            HR4_5      HR4_5  611.053 MiB    Yes     1    58.187 GiB
            HR4_6      HR4_6  611.053 MiB    Yes     1    58.781 GiB
            HR4_7      HR4_7  611.053 MiB    Yes     1    59.375 GiB
            HR4_8      HR4_8  611.053 MiB    Yes     1    59.969 GiB
            HR4_9      HR4_9  611.053 MiB    Yes     1    60.562 GiB
       Q(abc,ijk)     Q3FILE    8.122 MiB    Yes     1   487.324 MiB
       R(abc,ijk)     R3FILE    8.122 MiB    Yes     1    17.227 GiB
     R(abcd,ijkl)     R4FILE  611.053 MiB    Yes     1  1282.497 GiB
             R3_1       R3_1    8.122 MiB    Yes     1     6.164 GiB
            R3_10      R3_10    8.122 MiB    Yes     1     1.469 GiB
            R3_11      R3_11    8.122 MiB    Yes     1   560.000 MiB
            R3_12      R3_12    8.122 MiB    Yes     1   560.000 MiB
            R3_13      R3_13    8.122 MiB    Yes     1   560.000 MiB
            R3_14      R3_14    8.122 MiB    Yes     1   560.000 MiB
            R3_15      R3_15    8.122 MiB    Yes     1   560.000 MiB
            R3_16      R3_16    8.122 MiB    Yes     1   560.000 MiB
            R3_17      R3_17    8.122 MiB    Yes     1   560.000 MiB
            R3_18      R3_18    8.122 MiB    Yes     1   560.000 MiB
            R3_19      R3_19    8.122 MiB    Yes     1   560.000 MiB
             R3_2       R3_2    8.122 MiB    Yes     1     1.484 GiB
            R3_20      R3_20    8.122 MiB    Yes     1   320.000 MiB
            R3_21      R3_21    8.122 MiB    Yes     1   328.000 MiB
            R3_22      R3_22    8.122 MiB    Yes     1   328.000 MiB
            R3_23      R3_23    8.122 MiB    Yes     1   328.000 MiB
            R3_24      R3_24    8.122 MiB    Yes     1   328.000 MiB
            R3_25      R3_25    8.122 MiB    Yes     1   328.000 MiB
            R3_26      R3_26    8.122 MiB    Yes     1   328.000 MiB
            R3_27      R3_27    8.122 MiB    Yes     1   328.000 MiB
            R3_28      R3_28    8.122 MiB    Yes     1   328.000 MiB
            R3_29      R3_29    8.122 MiB    Yes     1   328.000 MiB
           R3_2_1     R3_2_1    8.000 MiB    Yes     1   600.000 MiB
             R3_3       R3_3    8.122 MiB    Yes     1     1.492 GiB
            R3_30      R3_30    8.122 MiB    Yes     1   328.000 MiB
            R3_31      R3_31    8.122 MiB     No     1         0   B
             R3_4       R3_4    8.122 MiB    Yes     1     1.500 GiB
             R3_5       R3_5    8.122 MiB    Yes     1     1.508 GiB
             R3_6       R3_6    8.122 MiB    Yes     1     1.516 GiB
             R3_7       R3_7    8.122 MiB    Yes     1     1.523 GiB
             R3_8       R3_8    8.122 MiB    Yes     1     1.531 GiB
             R3_9       R3_9    8.122 MiB    Yes     1     1.539 GiB
             R4_1       R4_1  611.053 MiB    Yes     1   468.468 GiB
            R4_10      R4_10  611.053 MiB    Yes     1   111.625 GiB
            R4_11      R4_11  611.053 MiB    Yes     1    41.562 GiB
            R4_12      R4_12  611.053 MiB    Yes     1    41.562 GiB
            R4_13      R4_13  611.053 MiB    Yes     1    41.562 GiB
            R4_14      R4_14  611.053 MiB    Yes     1    41.562 GiB
            R4_15      R4_15  611.053 MiB    Yes     1    41.562 GiB
            R4_16      R4_16  611.053 MiB    Yes     1    41.562 GiB
            R4_17      R4_17  611.053 MiB    Yes     1    41.562 GiB
            R4_18      R4_18  611.053 MiB    Yes     1    41.562 GiB
            R4_19      R4_19  611.053 MiB    Yes     1    41.562 GiB
             R4_2       R4_2  611.053 MiB    Yes     1   112.812 GiB
            R4_20      R4_20  611.053 MiB    Yes     1    23.750 GiB
            R4_21      R4_21  611.053 MiB    Yes     1    24.344 GiB
            R4_22      R4_22  611.053 MiB    Yes     1    24.344 GiB
            R4_23      R4_23  611.053 MiB    Yes     1    24.344 GiB
            R4_24      R4_24  611.053 MiB    Yes     1    24.344 GiB
            R4_25      R4_25  611.053 MiB    Yes     1    24.344 GiB
            R4_26      R4_26  611.053 MiB    Yes     1    24.344 GiB
            R4_27      R4_27  611.053 MiB    Yes     1    24.344 GiB
            R4_28      R4_28  611.053 MiB    Yes     1    24.344 GiB
            R4_29      R4_29  611.053 MiB    Yes     1    24.344 GiB
           R4_2_1     R4_2_1  607.999 MiB    Yes     1    44.531 GiB
             R4_3       R4_3  611.053 MiB    Yes     1   113.406 GiB
            R4_30      R4_30  611.053 MiB    Yes     1    24.344 GiB
            R4_31      R4_31  611.053 MiB     No     1         0   B
             R4_4       R4_4  611.053 MiB    Yes     1   114.000 GiB
             R4_5       R4_5  611.053 MiB    Yes     1   114.593 GiB
             R4_6       R4_6  611.053 MiB    Yes     1   115.187 GiB
             R4_7       R4_7  611.053 MiB    Yes     1   115.781 GiB
             R4_8       R4_8  611.053 MiB    Yes     1   116.375 GiB
             R4_9       R4_9  611.053 MiB    Yes     1   116.968 GiB
       T(abc,ijk)     T3FILE    8.122 MiB    Yes     1     2.157 GiB
     T(abcd,ijkl)     T4FILE  611.053 MiB    Yes     1    36.401 GiB
             T3_1       T3_1    8.122 MiB    Yes     1   243.662 MiB
             T3_2       T3_2    8.122 MiB    Yes     1   121.831 MiB
             T3_3       T3_3    8.122 MiB    Yes     1   121.831 MiB
             T3_4       T3_4    8.122 MiB    Yes     1   121.831 MiB
             T3_5       T3_5    8.122 MiB    Yes     1   121.831 MiB
       W(abc,ije)    WABCIJE  322.442 MiB    Yes     1    24.561 GiB
       W(abf,ijn)    WABFIJN   20.244 MiB    Yes     1   931.230 MiB
       W(abf,inj)    WABFINJ   32.244 MiB    Yes     1     1.448 GiB
       W(abm,ijk)    WABMIJK    1.274 MiB    Yes     1    99.404 MiB
       W(mnd,jkl)    WMNDJKL   82.500 KiB    Yes     1     3.706 MiB
       X(abc,ije)    XABCIJE  322.442 MiB    Yes     1    18.750 GiB
       X(abm,ijk)    XABMIJK    1.274 MiB    Yes     1    75.000 MiB
       X(mnd,jkl)    XMNDJKL   82.500 KiB    Yes     1     2.344 MiB
       Z(abc,ijk)     Z3FILE    8.122 MiB    Yes     1     1.309 GiB
     Z(abcd,ijkl)     Z4FILE  611.053 MiB    Yes     1    26.853 GiB
             Z3_1       Z3_1    8.122 MiB    Yes     1   243.662 MiB
             Z3_2       Z3_2    8.122 MiB    Yes     1   243.662 MiB
             Z3_3       Z3_3    8.122 MiB    Yes     1   243.662 MiB
             Z3_4       Z3_4    8.122 MiB    Yes     1   243.662 MiB
             Z3_5       Z3_5    8.122 MiB    Yes     1   243.662 MiB

Simulation and memory analysis took 7.420 seconds

MP2 correlation energy:  -0.207536169110955

Non-iterative calculation of MP2 took 0.060 cpu seconds and 0.003 walltime seconds at 0.241 Gflops/sec

Total MP2 energy: -460.315129978064078

Beginning iterative solution of CCSDTQ equations:

It.  Correlation Energy T1 Residual T2 Residual T3 Residual T4 Residual CPU Time (s) Walltime (s)
-------------------------------------------------------------------------------------------------
  1  -0.235296525116289 5.33157e-04 9.63224e-04 7.93130e-05 7.65265e-05      689.718       35.894
  2  -0.236340888958831 4.91307e-05 1.93015e-04 1.33065e-05 3.33301e-05     2041.918      103.491
  3  -0.236499892370135 2.49024e-06 1.64579e-05 2.28050e-06 8.61431e-06     2038.718      103.799
  4  -0.236524541085260 1.22739e-06 4.31416e-06 7.00417e-07 2.71369e-06     2045.898      103.849
  5  -0.236530923125353 3.50559e-07 1.28370e-06 1.35492e-07 8.48158e-07     2038.004      103.467

   A    I                     A    I                     A    I                  
-------------------------- -------------------------- -------------------------- 
  17    8  0.0058272084637   22    8 -0.0040112516489   29    8 -0.0029725577654 
  16    9  0.0058272084637   18    7 -0.0036205271583   21    7  0.0028657259387 
  32    7 -0.0055542817236   15    7 -0.0034690758228   27    7  0.0027536175552 
  37    7 -0.0046821601265   21    6  0.0029852404898   49    7 -0.0026975875405 
  23    9 -0.0040112516489   28    9 -0.0029725577654   37    6 -0.0025250389996 

   A    B    I    J                     A    B    I    J                  
------------------------------------ ------------------------------------ 
  14   14    7    7 -0.0301233821255   19   19    8    8 -0.0213251109326 
  25   25    9    9 -0.0240642470898   20   20    9    9 -0.0213251109326 
  26   26    8    8 -0.0240642470898   20   20    8    8 -0.0213251109326 
  18   18    7    7 -0.0235983786078   19   19    9    9 -0.0213251109326 
  18   14    7    7  0.0227841414347   33   33    8    8 -0.0206745439602 
  14   18    7    7  0.0227841414347   33   33    9    9 -0.0206745439602 
  15   14    7    7  0.0217825402329   34   34    8    8 -0.0206745439602 
  14   15    7    7  0.0217825402329 

It.  Correlation Energy T1 Residual T2 Residual T3 Residual T4 Residual CPU Time (s) Walltime (s)
-------------------------------------------------------------------------------------------------
  6  -0.236532591287191 8.98637e-08 4.43685e-07 5.26445e-08 2.88429e-07     2039.850      103.450
  7  -0.236533071523846 1.69660e-08 1.44105e-07 1.64800e-08 9.66939e-08     2033.457      103.271
  8  -0.236533213488441 3.45916e-09 4.68598e-08 5.78246e-09 3.39150e-08     2044.193      103.913

CCSDTQ iterations converged in 8 cycles and 761.134 seconds (95.142 s/it.) at 11.039 Gflops/sec

Total CCSDTQ energy: -460.344127022441569

             _
Formation of H took 23.108 seconds at 2.514 Gflops/sec

Searching for 1 roots in irrep 2

EOMEE-CCSD guess vector:

   A    I                  
-------------------------- 
  10    8  1.0000000000000 

Beginning iterative solution of EOMEE-CCSDTQ equations:

It.  Correlation Energy R1 Residual R2 Residual R3 Residual R4 Residual CPU Time (s) Walltime (s)
-------------------------------------------------------------------------------------------------
  1   0.421111867868414 3.29135e-02 5.45469e-02 2.15942e-03 7.78566e-05     4117.359      208.114
  2   0.348320969078167 1.06922e-01 2.10119e-02 3.29392e-03 1.19733e-04     4402.297      222.783
  3   0.318141381649294 2.91012e-02 9.86809e-03 2.42307e-03 3.19550e-04     4680.360      236.946
  4   0.305511697498854 3.36993e-02 4.80446e-03 4.27661e-03 2.43496e-04     4949.554      250.132
  5   0.295477090824211 1.76743e-02 5.73592e-03 1.90064e-03 8.45351e-04     5230.048      264.480
  6   0.290498633132161 1.35111e-02 2.75253e-03 2.06725e-03 6.54708e-04     5492.655      277.735
  7   0.288350394690994 7.13193e-03 1.02397e-03 1.70286e-03 6.57605e-04     5722.790      289.350
  8   0.288043512345634 2.03261e-03 5.81527e-04 6.24843e-04 5.35054e-04     5977.697      302.286
Locking on root: 0.288029589997027
  9   0.288029589997027 4.61422e-04 2.39850e-04 1.78489e-04 1.90193e-04     6240.882      315.091
 10   0.288010719325631 2.34642e-04 9.18812e-05 8.14871e-05 6.33042e-05     6498.661      328.255
 11   0.287995977860208 1.89321e-04 2.82434e-05 2.74194e-05 1.78963e-05     6796.325      343.247
 12   0.287993404361743 1.20005e-04 1.29316e-05 1.18122e-05 7.81933e-06     7031.522      354.825
 13   0.287994805213661 7.52713e-05 6.89683e-06 7.09762e-06 7.10677e-06     7278.643      367.643
 14   0.287996843615567 3.75341e-05 3.81310e-06 4.24586e-06 5.63065e-06     7545.659      380.862
 15   0.287996693485834 1.34837e-05 2.51303e-06 2.90126e-06 3.01120e-06     7797.764      393.502
 16   0.287996244277253 3.54353e-06 1.09287e-06 1.33100e-06 8.10337e-07     8084.683      407.827

EOMEE-CCSDTQ iterations converged in 16 cycles and 4943.076 seconds (308.942 s/it.) at 6.675 Gflops/sec

EOMEE-CCSDTQ excitation energy:   0.287996244277224 (  7.836776220787596 eV)
Total EOMEE-CCSDTQ energy:      -460.056130778164345

Converged root:

   A    I                     A    I                     A    I                  
-------------------------- -------------------------- -------------------------- 
  10    8  0.4723087881826   24    8  0.0535625415238   33    8  0.0107381431988 
  14    8 -0.4516412357241   20    9  0.0199329388212   34    9  0.0107381431988 
  18    8  0.1278180562630   19    8  0.0199329388212   27    8 -0.0102280211386 
  15    8  0.1074036495288   32    8  0.0159993716390   48    8 -0.0096585429598 
  21    8  0.0577736814644   37    8 -0.0121780025080   17    7  0.0092201643404 

   A    B    I    J                     A    B    I    J                  
------------------------------------ ------------------------------------ 
  14   14    7    8 -0.0371508470330   14   14    8    6  0.0270472683209 
  14   14    8    7 -0.0371508470330   14   14    6    8  0.0270472683209 
  26   10    8    8 -0.0336248726664   25   10    9    8 -0.0267204884356 
  10   26    8    8 -0.0336248726664   10   25    8    9 -0.0267204884356 
  12   10    8    8  0.0304857736049   14   15    8    7  0.0243212244942 
  10   12    8    8  0.0304857736049   15   14    7    8  0.0243212244942 
  10   14    8    7  0.0284732538798   13   10    9    8  0.0238581641928 
  14   10    7    8  0.0284732538798 

 @CHECKOUT-I, Total execution time (CPU/WALL):   114737.18/    5804.61 seconds.
--executable xncc finished with status     0 in     5807.65 seconds (walltime).
  The final electronic energy is      -460.056130778164345 a.u. 
  This computation required                         5837.23 seconds (walltime).
